/*--------------------------------*- C++ -*----------------------------------*\
  =========                 |
  \\      /  F ield         | OpenFOAM: The Open Source CFD Toolbox
   \\    /   O peration     | Website:  https://openfoam.org
    \\  /    A nd           | Version:  11
     \\/     M anipulation  |
\*---------------------------------------------------------------------------*/
FoamFile
{
    format      ascii;
    class       volScalarField;
    location    "5";
    object      epsilon;
}
// * * * * * * * * * * * * * * * * * * * * * * * * * * * * * * * * * * * * * //

dimensions      [0 2 -3 0 0 0 0];

internalField   nonuniform List<scalar> 
400
(
0.000203277
0.000134951
0.000100662
8.3103e-05
7.22678e-05
6.47742e-05
5.95986e-05
5.62016e-05
5.4423e-05
5.36311e-05
5.36321e-05
5.44263e-05
5.62082e-05
5.96111e-05
6.47968e-05
7.23035e-05
8.31532e-05
0.000100717
0.000134981
0.000203267
0.000136457
0.00013017
0.000107854
8.88197e-05
7.57487e-05
6.68762e-05
6.09085e-05
5.7201e-05
5.52384e-05
5.43717e-05
5.43727e-05
5.52419e-05
5.72081e-05
6.09218e-05
6.69001e-05
7.57857e-05
8.88677e-05
0.000107898
0.000130186
0.000136446
0.000101976
0.000108815
0.000103191
9.0946e-05
7.87266e-05
6.91555e-05
6.24713e-05
5.84116e-05
5.6245e-05
5.52904e-05
5.52915e-05
5.62487e-05
5.8419e-05
6.24852e-05
6.91796e-05
7.87613e-05
9.09854e-05
0.000103221
0.000108823
0.000101969
8.42318e-05
8.99161e-05
9.15735e-05
8.73332e-05
7.93293e-05
7.08607e-05
6.405e-05
5.97575e-05
5.74216e-05
5.63861e-05
5.63872e-05
5.74254e-05
5.9765e-05
6.40637e-05
7.08831e-05
7.93582e-05
8.73614e-05
9.15917e-05
8.99208e-05
8.42285e-05
7.34203e-05
7.68311e-05
7.95789e-05
7.97809e-05
7.65501e-05
7.09578e-05
6.51532e-05
6.10358e-05
5.86752e-05
5.76056e-05
5.76068e-05
5.86788e-05
6.1043e-05
6.51657e-05
7.09761e-05
7.65711e-05
7.97992e-05
7.95897e-05
7.6834e-05
7.34186e-05
6.60079e-05
6.80012e-05
7.01036e-05
7.1553e-05
7.13102e-05
6.89059e-05
6.51506e-05
6.18695e-05
5.97871e-05
5.87983e-05
5.87993e-05
5.97904e-05
6.18757e-05
6.51605e-05
6.8919e-05
7.13237e-05
7.15639e-05
7.01096e-05
6.80023e-05
6.60062e-05
6.09338e-05
6.21306e-05
6.35295e-05
6.48963e-05
6.57299e-05
6.54185e-05
6.38176e-05
6.18627e-05
6.04115e-05
5.96676e-05
5.96685e-05
6.04141e-05
6.18674e-05
6.38245e-05
6.54268e-05
6.57378e-05
6.49025e-05
6.35323e-05
6.21302e-05
6.09313e-05
5.79424e-05
5.87287e-05
5.96904e-05
6.0756e-05
6.17257e-05
6.22377e-05
6.19599e-05
6.11422e-05
6.03775e-05
5.99442e-05
5.99448e-05
6.03794e-05
6.11454e-05
6.19644e-05
6.22428e-05
6.17305e-05
6.07596e-05
5.96915e-05
5.87271e-05
5.79391e-05
5.6203e-05
5.67891e-05
5.752e-05
5.83747e-05
5.92737e-05
6.00318e-05
6.03812e-05
6.02675e-05
6.00067e-05
5.98256e-05
5.9826e-05
6.00079e-05
6.02696e-05
6.0384e-05
6.00351e-05
5.92767e-05
5.83768e-05
5.752e-05
5.67868e-05
5.61992e-05
5.51653e-05
5.56439e-05
5.6247e-05
5.69716e-05
5.77869e-05
5.85985e-05
5.92214e-05
5.94954e-05
5.95517e-05
5.95418e-05
5.95421e-05
5.95525e-05
5.94968e-05
5.92232e-05
5.86006e-05
5.77888e-05
5.69728e-05
5.62463e-05
5.56411e-05
5.51611e-05
5.45448e-05
5.49636e-05
5.54937e-05
5.61398e-05
5.68916e-05
5.76992e-05
5.84328e-05
5.89041e-05
5.91403e-05
5.92335e-05
5.92337e-05
5.91408e-05
5.89049e-05
5.8434e-05
5.77006e-05
5.68929e-05
5.61404e-05
5.54925e-05
5.49604e-05
5.45404e-05
5.41806e-05
5.45657e-05
5.50537e-05
5.56527e-05
5.63616e-05
5.71514e-05
5.79242e-05
5.84886e-05
5.88184e-05
5.8968e-05
5.89681e-05
5.88187e-05
5.84891e-05
5.7925e-05
5.71524e-05
5.63624e-05
5.56529e-05
5.50522e-05
5.45622e-05
5.41759e-05
5.3977e-05
5.43432e-05
5.48069e-05
5.53777e-05
5.60584e-05
5.683e-05
5.76113e-05
5.82144e-05
5.85881e-05
5.87655e-05
5.87655e-05
5.85883e-05
5.82147e-05
5.76118e-05
5.68307e-05
5.60589e-05
5.53776e-05
5.48051e-05
5.43394e-05
5.3972e-05
5.38766e-05
5.42324e-05
5.4682e-05
5.52355e-05
5.58974e-05
5.66528e-05
5.74289e-05
5.80425e-05
5.84323e-05
5.86208e-05
5.86209e-05
5.84324e-05
5.80427e-05
5.74293e-05
5.66533e-05
5.58977e-05
5.52351e-05
5.46797e-05
5.42281e-05
5.38711e-05
5.38492e-05
5.42e-05
5.46419e-05
5.51857e-05
5.58355e-05
5.65772e-05
5.73414e-05
5.79497e-05
5.83394e-05
5.8529e-05
5.8529e-05
5.83395e-05
5.795e-05
5.73418e-05
5.65777e-05
5.58356e-05
5.51848e-05
5.4639e-05
5.41947e-05
5.38425e-05
5.38562e-05
5.42051e-05
5.46437e-05
5.51827e-05
5.58251e-05
5.65556e-05
5.73059e-05
5.79027e-05
5.82854e-05
5.84719e-05
5.84719e-05
5.82855e-05
5.7903e-05
5.73064e-05
5.65562e-05
5.58252e-05
5.51816e-05
5.464e-05
5.41985e-05
5.38477e-05
5.38722e-05
5.42215e-05
5.46606e-05
5.51989e-05
5.58367e-05
5.65572e-05
5.7293e-05
5.78767e-05
5.82505e-05
5.84325e-05
5.84325e-05
5.82506e-05
5.7877e-05
5.72935e-05
5.65579e-05
5.58369e-05
5.51976e-05
5.46563e-05
5.42134e-05
5.38615e-05
5.38824e-05
5.42362e-05
5.46811e-05
5.52222e-05
5.58566e-05
5.65672e-05
5.72889e-05
5.78599e-05
5.82248e-05
5.84023e-05
5.84023e-05
5.82249e-05
5.78602e-05
5.72895e-05
5.6568e-05
5.58569e-05
5.52209e-05
5.46766e-05
5.4227e-05
5.38696e-05
5.38741e-05
5.42448e-05
5.47031e-05
5.52483e-05
5.58788e-05
5.65798e-05
5.72884e-05
5.78481e-05
5.82049e-05
5.83784e-05
5.83784e-05
5.8205e-05
5.78483e-05
5.7289e-05
5.65807e-05
5.58792e-05
5.52471e-05
5.46987e-05
5.42353e-05
5.38611e-05
5.38348e-05
5.42556e-05
5.47292e-05
5.52754e-05
5.59006e-05
5.65926e-05
5.72896e-05
5.78397e-05
5.81897e-05
5.83596e-05
5.83596e-05
5.81898e-05
5.784e-05
5.72903e-05
5.65934e-05
5.59009e-05
5.5274e-05
5.47244e-05
5.42464e-05
5.38231e-05
)
;

boundaryField
{
    defaultFaces
    {
        type            empty;
    }
}


// ************************************************************************* //
