/*--------------------------------*- C++ -*----------------------------------*\
  =========                 |
  \\      /  F ield         | OpenFOAM: The Open Source CFD Toolbox
   \\    /   O peration     | Website:  https://openfoam.org
    \\  /    A nd           | Version:  11
     \\/     M anipulation  |
\*---------------------------------------------------------------------------*/
FoamFile
{
    format      ascii;
    class       volScalarField;
    location    "5";
    object      k;
}
// * * * * * * * * * * * * * * * * * * * * * * * * * * * * * * * * * * * * * //

dimensions      [0 2 -2 0 0 0 0];

internalField   nonuniform List<scalar> 
400
(
0.00104362
0.000693122
0.000517172
0.000427152
0.000371615
0.000333155
0.000306495
0.000288907
0.000279645
0.000275505
0.00027551
0.000279663
0.000288941
0.000306555
0.000333253
0.00037176
0.000427345
0.000517386
0.000693269
0.00104367
0.00070082
0.000668646
0.000554215
0.000456592
0.000389546
0.000343989
0.000313249
0.000294054
0.000283836
0.000279305
0.000279311
0.000283855
0.00029409
0.000313313
0.000344093
0.000389697
0.000456781
0.000554396
0.000668749
0.000700834
0.000523828
0.000559091
0.000530325
0.000467556
0.000404878
0.000355725
0.000321295
0.000300278
0.000289001
0.000284013
0.000284019
0.000289021
0.000300317
0.000321361
0.00035583
0.000405022
0.000467719
0.00053046
0.000559157
0.000523837
0.000432768
0.000462083
0.000470696
0.000449011
0.000407975
0.000364483
0.0003294
0.000307179
0.000295024
0.000289613
0.00028962
0.000295044
0.000307219
0.000329467
0.000364583
0.0004081
0.000449136
0.000470788
0.000462127
0.00043278
0.000377231
0.000394845
0.000409054
0.000410176
0.000393643
0.000364924
0.000335014
0.000313693
0.000301406
0.000295817
0.000295824
0.000301426
0.000313731
0.000335076
0.000365009
0.000393739
0.000410263
0.000409114
0.000394874
0.000377241
0.000339006
0.000349326
0.000360216
0.000367747
0.000366563
0.000354223
0.000334853
0.000317842
0.000306992
0.000301821
0.000301826
0.00030701
0.000317875
0.000334904
0.000354288
0.000366629
0.000367804
0.000360253
0.000349344
0.000339011
0.000312609
0.000318828
0.000326097
0.000333204
0.000337557
0.000335984
0.000327707
0.000317541
0.000309957
0.000306057
0.000306062
0.000309972
0.000317567
0.000327744
0.000336027
0.000337598
0.000333237
0.000326117
0.000318834
0.000312606
0.000296787
0.000300885
0.000305895
0.000311447
0.0003165
0.000319173
0.000317726
0.000313443
0.000309422
0.000307138
0.000307141
0.000309433
0.000313462
0.000317751
0.0003192
0.000316525
0.000311466
0.000305904
0.000300882
0.000296777
0.000287385
0.00029044
0.000294249
0.000298702
0.000303384
0.000307327
0.000309128
0.000308501
0.000307104
0.000306135
0.000306138
0.000307111
0.000308513
0.000309143
0.000307344
0.000303399
0.000298713
0.000294251
0.000290432
0.000287371
0.00028162
0.000284108
0.000287243
0.00029101
0.000295248
0.000299462
0.000302682
0.000304077
0.000304339
0.000304268
0.00030427
0.000304344
0.000304085
0.000302692
0.000299472
0.000295257
0.000291016
0.00028724
0.000284096
0.000281603
0.000278054
0.000280221
0.000282965
0.000286312
0.000290207
0.00029439
0.000298185
0.000300613
0.000301822
0.000302295
0.000302296
0.000301825
0.000300619
0.000298191
0.000294397
0.000290212
0.000286314
0.00028296
0.000280207
0.000278035
0.000275872
0.000277854
0.000280369
0.000283458
0.000287116
0.000291197
0.000295192
0.000298111
0.000299816
0.000300589
0.000300589
0.000299818
0.000298114
0.000295197
0.000291201
0.000287119
0.000283457
0.000280361
0.000277839
0.000275852
0.000274585
0.000276461
0.00027884
0.000281771
0.000285272
0.000289248
0.000293283
0.000296407
0.000298347
0.000299269
0.00029927
0.000298348
0.000296409
0.000293286
0.00028925
0.000285273
0.000281769
0.00027883
0.000276444
0.000274563
0.000273892
0.000275709
0.000278007
0.00028084
0.000284235
0.000288119
0.000292124
0.000295304
0.000297332
0.000298316
0.000298316
0.000297333
0.000295305
0.000292126
0.00028812
0.000284234
0.000280836
0.000277995
0.000275689
0.000273867
0.000273641
0.000275428
0.000277683
0.000280461
0.000283788
0.000287597
0.000291538
0.000294693
0.000296723
0.000297714
0.000297714
0.000296724
0.000294694
0.00029154
0.000287598
0.000283786
0.000280454
0.000277667
0.000275403
0.00027361
0.000273614
0.00027539
0.000277626
0.000280379
0.000283666
0.000287416
0.000291284
0.000294381
0.000296377
0.000297353
0.000297353
0.000296377
0.000294382
0.000291286
0.000287417
0.000283663
0.00028037
0.000277608
0.00027536
0.000273576
0.000273661
0.000275438
0.000277677
0.000280426
0.00028369
0.000287388
0.000291182
0.000294212
0.000296163
0.000297117
0.000297117
0.000296164
0.000294213
0.000291184
0.000287389
0.000283687
0.000280416
0.000277656
0.000275402
0.000273614
0.000273694
0.000275495
0.000277764
0.000280528
0.000283774
0.000287422
0.000291144
0.000294109
0.000296016
0.000296947
0.000296947
0.000296016
0.000294111
0.000291147
0.000287424
0.000283772
0.000280518
0.000277742
0.000275455
0.00027364
0.000273647
0.000275534
0.00027787
0.000280654
0.000283881
0.00028748
0.000291135
0.000294042
0.000295908
0.000296819
0.000296819
0.000295909
0.000294044
0.000291137
0.000287481
0.000283879
0.000280645
0.000277848
0.000275492
0.000273592
0.000273448
0.000275588
0.000278001
0.00028079
0.00028399
0.000287542
0.00029114
0.000293998
0.000295828
0.000296721
0.000296722
0.000295829
0.000293999
0.000291142
0.000287544
0.000283987
0.00028078
0.000277978
0.000275547
0.000273397
)
;

boundaryField
{
    defaultFaces
    {
        type            empty;
    }
}


// ************************************************************************* //
