/*--------------------------------*- C++ -*----------------------------------*\
  =========                 |
  \\      /  F ield         | OpenFOAM: The Open Source CFD Toolbox
   \\    /   O peration     | Website:  https://openfoam.org
    \\  /    A nd           | Version:  11
     \\/     M anipulation  |
\*---------------------------------------------------------------------------*/
FoamFile
{
    format      ascii;
    class       volScalarField;
    location    "5";
    object      nut;
}
// * * * * * * * * * * * * * * * * * * * * * * * * * * * * * * * * * * * * * //

dimensions      [0 2 -1 0 0 0 0];

internalField   nonuniform List<scalar> 
400
(
0.000482211
0.000320395
0.000239138
0.000197602
0.000171983
0.000154217
0.000141858
0.000133662
0.000129323
0.000127375
0.000127378
0.000129332
0.000133679
0.000141884
0.000154254
0.000172031
0.000197661
0.000239204
0.000320461
0.000482279
0.000323936
0.000309119
0.000256308
0.000211247
0.000180296
0.000159243
0.000144992
0.000136048
0.000131261
0.00012913
0.000129133
0.00013127
0.000136065
0.000145019
0.000159282
0.000180347
0.000211307
0.000256371
0.000309175
0.000323975
0.00024217
0.000258535
0.000245292
0.000216335
0.0001874
0.000164681
0.00014872
0.000138928
0.000133647
0.000131301
0.000131304
0.000133657
0.000138946
0.000148749
0.000164721
0.000187451
0.000216392
0.000245346
0.000258576
0.000242195
0.000200114
0.00021372
0.000217748
0.000207768
0.000188832
0.00016873
0.000152465
0.000142113
0.000136421
0.000133877
0.00013388
0.000136431
0.000142132
0.000152494
0.000168769
0.000188879
0.000207816
0.00021779
0.000213749
0.000200132
0.000174438
0.000182624
0.000189237
0.000189795
0.00018218
0.000168907
0.000155036
0.0001451
0.000139345
0.000136718
0.000136721
0.000139355
0.000145118
0.000155064
0.000168942
0.000182219
0.000189832
0.000189267
0.000182645
0.000174452
0.000156697
0.000161506
0.000166582
0.000170103
0.000169585
0.000163885
0.000154893
0.000146956
0.000141869
0.000139436
0.000139439
0.000141879
0.000146973
0.000154917
0.000163914
0.000169614
0.00017013
0.000166602
0.000161519
0.000156706
0.00014434
0.000147248
0.000150647
0.000153972
0.000156017
0.000155303
0.000151452
0.000146694
0.000143128
0.000141289
0.000141291
0.000143136
0.000146707
0.00015147
0.000155323
0.000156037
0.000153988
0.000150658
0.000147255
0.000144343
0.000136816
0.000138737
0.000141086
0.000143688
0.000146058
0.000147313
0.000146635
0.000144617
0.000142715
0.000141632
0.000141634
0.000142721
0.000144626
0.000146647
0.000147326
0.000146069
0.000143697
0.000141091
0.000138739
0.000136814
0.000132255
0.000133687
0.000135473
0.000137561
0.000139755
0.0001416
0.000142435
0.000142125
0.000141453
0.000140988
0.000140989
0.000141457
0.000142132
0.000142443
0.000141607
0.000139761
0.000137565
0.000135475
0.000133686
0.000132251
0.000129391
0.000130554
0.000132021
0.000133783
0.000135765
0.000137733
0.000139232
0.000139871
0.000139979
0.000139938
0.000139938
0.000139982
0.000139875
0.000139237
0.000137738
0.000135769
0.000133785
0.00013202
0.00013055
0.000129385
0.00012757
0.000128578
0.000129857
0.000131416
0.000133232
0.000135182
0.000136948
0.000138075
0.000138631
0.000138847
0.000138848
0.000138633
0.000138077
0.000136951
0.000135185
0.000133234
0.000131417
0.000129855
0.000128573
0.000127563
0.00012642
0.000127338
0.000128504
0.000129937
0.000131636
0.000133533
0.000135392
0.00013675
0.000137543
0.000137902
0.000137903
0.000137544
0.000136752
0.000135394
0.000133535
0.000131637
0.000129936
0.0001285
0.000127332
0.000126412
0.000125715
0.00012658
0.000127678
0.000129033
0.000130653
0.000132497
0.000134372
0.000135828
0.000136734
0.000137165
0.000137166
0.000136735
0.000135829
0.000134374
0.000132497
0.000130653
0.000129031
0.000127674
0.000126573
0.000125706
0.000125315
0.000126149
0.000127206
0.000128512
0.000130078
0.000131876
0.000133735
0.000135218
0.000136167
0.000136629
0.000136629
0.000136168
0.000135219
0.000133736
0.000131876
0.000130077
0.000128509
0.000127201
0.000126141
0.000125304
0.000125149
0.000125968
0.000127003
0.000128281
0.000129814
0.000131574
0.000133403
0.000134874
0.000135826
0.000136292
0.000136292
0.000135826
0.000134875
0.000133403
0.000131574
0.000129812
0.000128277
0.000126996
0.000125957
0.000125136
0.000125108
0.000125921
0.000126947
0.000128212
0.000129726
0.000131459
0.000133253
0.000134698
0.000135635
0.000136094
0.000136094
0.000135635
0.000134699
0.000133254
0.000131458
0.000129724
0.000128207
0.000126939
0.000125909
0.000125093
0.000125113
0.000125927
0.000126954
0.000128218
0.000129721
0.000131429
0.00013319
0.000134604
0.00013552
0.00013597
0.00013597
0.000135521
0.000134605
0.00013319
0.000131428
0.000129718
0.000128212
0.000126945
0.000125913
0.000125096
0.00012512
0.000125945
0.000126987
0.000128257
0.000129752
0.000131437
0.000133165
0.00013455
0.000135445
0.000135885
0.000135885
0.000135446
0.00013455
0.000133165
0.000131437
0.000129749
0.000128251
0.000126976
0.00012593
0.0001251
0.000125096
0.00012596
0.000127032
0.000128312
0.000129798
0.00013146
0.000133157
0.000134516
0.000135393
0.000135823
0.000135823
0.000135393
0.000134517
0.000133158
0.00013146
0.000129795
0.000128306
0.000127022
0.000125944
0.000125076
0.000125006
0.000125985
0.000127092
0.000128373
0.000129847
0.000131488
0.000133158
0.000134495
0.000135356
0.000135777
0.000135778
0.000135356
0.000134495
0.000133159
0.000131487
0.000129844
0.000128367
0.000127081
0.000125969
0.000124986
)
;

boundaryField
{
    defaultFaces
    {
        type            empty;
    }
}


// ************************************************************************* //
