/*--------------------------------*- C++ -*----------------------------------*\
  =========                 |
  \\      /  F ield         | OpenFOAM: The Open Source CFD Toolbox
   \\    /   O peration     | Website:  https://openfoam.org
    \\  /    A nd           | Version:  11
     \\/     M anipulation  |
\*---------------------------------------------------------------------------*/
FoamFile
{
    format      ascii;
    class       volScalarField;
    location    "4.5";
    object      epsilon;
}
// * * * * * * * * * * * * * * * * * * * * * * * * * * * * * * * * * * * * * //

dimensions      [0 2 -3 0 0 0 0];

internalField   nonuniform List<scalar> 
400
(
0.000245837
0.00016319
0.000121715
0.000100481
8.739e-05
7.83563e-05
7.21401e-05
6.80752e-05
6.59572e-05
6.50176e-05
6.50186e-05
6.59604e-05
6.80813e-05
7.21516e-05
7.83787e-05
8.74289e-05
0.000100538
0.000121778
0.000163217
0.000245804
0.000165018
0.000157412
0.000130418
0.000107397
9.15996e-05
8.08967e-05
7.37227e-05
6.92838e-05
6.6945e-05
6.59159e-05
6.5917e-05
6.69484e-05
6.92903e-05
7.37351e-05
8.09206e-05
9.164e-05
0.000107451
0.000130466
0.000157422
0.000164991
0.000123323
0.00013159
0.000124784
0.000109974
9.5204e-05
8.36542e-05
7.56131e-05
7.07494e-05
6.81657e-05
6.70315e-05
6.70325e-05
6.81692e-05
7.07563e-05
7.56261e-05
8.36784e-05
9.52416e-05
0.000110017
0.000124814
0.000131591
0.000123305
0.000101884
0.00010875
0.000110747
0.000105616
9.59429e-05
8.57235e-05
7.75275e-05
7.23828e-05
6.95956e-05
6.83646e-05
6.83657e-05
6.95992e-05
7.23898e-05
7.75403e-05
8.57457e-05
9.59732e-05
0.000105646
0.000110764
0.000108749
0.000101874
8.88508e-05
9.29626e-05
9.62741e-05
9.65112e-05
9.26058e-05
8.58601e-05
7.8877e-05
7.39425e-05
7.11255e-05
6.98538e-05
6.98549e-05
7.11291e-05
7.39493e-05
7.88887e-05
8.58781e-05
9.26273e-05
9.65297e-05
9.62835e-05
9.29623e-05
8.88451e-05
7.9957e-05
8.23515e-05
8.4878e-05
8.66177e-05
8.63189e-05
8.34207e-05
7.8908e-05
7.49799e-05
7.24973e-05
7.13223e-05
7.13234e-05
7.25005e-05
7.49859e-05
7.89174e-05
8.34336e-05
8.63329e-05
8.66292e-05
8.48839e-05
8.23516e-05
7.99536e-05
7.392e-05
7.5351e-05
7.70248e-05
7.86604e-05
7.96563e-05
7.9279e-05
7.73602e-05
7.50268e-05
7.33015e-05
7.242e-05
7.24209e-05
7.33041e-05
7.50314e-05
7.73669e-05
7.92875e-05
7.9665e-05
7.86678e-05
7.70284e-05
7.53506e-05
7.3917e-05
7.04108e-05
7.13477e-05
7.24943e-05
7.37655e-05
7.49229e-05
7.55345e-05
7.52049e-05
7.42356e-05
7.33323e-05
7.28219e-05
7.28225e-05
7.33342e-05
7.42388e-05
7.52093e-05
7.55399e-05
7.49285e-05
7.37702e-05
7.2496e-05
7.13462e-05
7.04072e-05
6.84075e-05
6.91054e-05
6.99763e-05
7.09952e-05
7.20681e-05
7.29745e-05
7.33962e-05
7.32686e-05
7.29664e-05
7.27563e-05
7.27567e-05
7.29677e-05
7.32707e-05
7.33989e-05
7.29779e-05
7.20717e-05
7.09982e-05
6.99768e-05
6.9103e-05
6.84031e-05
6.72408e-05
6.78124e-05
6.85326e-05
6.93982e-05
7.03727e-05
7.13444e-05
7.20929e-05
7.24271e-05
7.25012e-05
7.24939e-05
7.24942e-05
7.2502e-05
7.24283e-05
7.20946e-05
7.13466e-05
7.03752e-05
6.94001e-05
6.85322e-05
6.78093e-05
6.72361e-05
6.65643e-05
6.70667e-05
6.77027e-05
6.84776e-05
6.93793e-05
7.03481e-05
7.12291e-05
7.1797e-05
7.20835e-05
7.21974e-05
7.21976e-05
7.20839e-05
7.17977e-05
7.12301e-05
7.03495e-05
6.93809e-05
6.84788e-05
6.77018e-05
6.70633e-05
6.65592e-05
6.61822e-05
6.66467e-05
6.72353e-05
6.79571e-05
6.88106e-05
6.97607e-05
7.06894e-05
7.13669e-05
7.1763e-05
7.19428e-05
7.19429e-05
7.17633e-05
7.13673e-05
7.069e-05
6.97617e-05
6.88118e-05
6.79579e-05
6.72341e-05
6.66431e-05
6.61769e-05
6.59795e-05
6.64235e-05
6.69854e-05
6.76761e-05
6.84988e-05
6.94296e-05
7.03694e-05
7.10924e-05
7.15393e-05
7.17511e-05
7.17512e-05
7.15395e-05
7.10926e-05
7.03698e-05
6.94302e-05
6.84997e-05
6.76766e-05
6.69838e-05
6.64196e-05
6.5974e-05
6.58883e-05
6.63214e-05
6.6868e-05
6.75404e-05
6.83429e-05
6.92564e-05
7.0191e-05
7.09261e-05
7.13912e-05
7.16155e-05
7.16155e-05
7.13913e-05
7.09262e-05
7.01912e-05
6.92568e-05
6.83436e-05
6.75406e-05
6.68661e-05
6.6317e-05
6.58823e-05
6.5872e-05
6.62999e-05
6.68385e-05
6.75005e-05
6.829e-05
6.91887e-05
7.01099e-05
7.08386e-05
7.13028e-05
7.15279e-05
7.15279e-05
7.13028e-05
7.08387e-05
7.01101e-05
6.91892e-05
6.82907e-05
6.75004e-05
6.68361e-05
6.62945e-05
6.58647e-05
6.58885e-05
6.63146e-05
6.68498e-05
6.75068e-05
6.82883e-05
6.91743e-05
7.00793e-05
7.07941e-05
7.12496e-05
7.14707e-05
7.14707e-05
7.12497e-05
7.07942e-05
7.00796e-05
6.9175e-05
6.8289e-05
6.75066e-05
6.68467e-05
6.63078e-05
6.58792e-05
6.5912e-05
6.63388e-05
6.68748e-05
6.75312e-05
6.83077e-05
6.9182e-05
7.00698e-05
7.07687e-05
7.12132e-05
7.14288e-05
7.14288e-05
7.12133e-05
7.07688e-05
7.00701e-05
6.91828e-05
6.83087e-05
6.7531e-05
6.68712e-05
6.63303e-05
6.59e-05
6.59264e-05
6.63587e-05
6.69019e-05
6.75618e-05
6.83343e-05
6.91969e-05
7.00676e-05
7.0751e-05
7.11847e-05
7.13948e-05
7.13948e-05
7.11848e-05
7.07511e-05
7.0068e-05
6.91979e-05
6.83356e-05
6.75618e-05
6.68981e-05
6.63489e-05
6.59116e-05
6.59169e-05
6.63699e-05
6.69295e-05
6.75945e-05
6.83624e-05
6.92133e-05
7.00682e-05
7.07378e-05
7.11617e-05
7.13667e-05
7.13667e-05
7.11617e-05
7.07379e-05
7.00686e-05
6.92144e-05
6.83637e-05
6.75946e-05
6.69258e-05
6.63596e-05
6.59018e-05
6.58686e-05
6.63831e-05
6.69616e-05
6.7628e-05
6.83894e-05
6.92293e-05
7.00701e-05
7.07279e-05
7.11434e-05
7.13441e-05
7.13441e-05
7.11434e-05
7.07281e-05
7.00705e-05
6.92303e-05
6.83906e-05
6.76278e-05
6.69574e-05
6.63733e-05
6.58554e-05
)
;

boundaryField
{
    defaultFaces
    {
        type            empty;
    }
}


// ************************************************************************* //
