/*--------------------------------*- C++ -*----------------------------------*\
  =========                 |
  \\      /  F ield         | OpenFOAM: The Open Source CFD Toolbox
   \\    /   O peration     | Website:  https://openfoam.org
    \\  /    A nd           | Version:  11
     \\/     M anipulation  |
\*---------------------------------------------------------------------------*/
FoamFile
{
    format      ascii;
    class       volScalarField;
    location    "4.5";
    object      k;
}
// * * * * * * * * * * * * * * * * * * * * * * * * * * * * * * * * * * * * * //

dimensions      [0 2 -2 0 0 0 0];

internalField   nonuniform List<scalar> 
400
(
0.00114932
0.000763282
0.000569475
0.000470314
0.000409151
0.000366833
0.000337566
0.000318317
0.000308215
0.00030371
0.000303715
0.000308232
0.000318348
0.000337624
0.000366934
0.000409305
0.000470524
0.000569705
0.000763423
0.00114932
0.000771791
0.000736344
0.000610292
0.000502753
0.000428907
0.000378765
0.000345
0.000323984
0.000312835
0.000307902
0.000307908
0.000312852
0.000324018
0.000345063
0.000378872
0.000429067
0.000502956
0.000610481
0.000736432
0.000771771
0.000576895
0.000615711
0.000584005
0.000514852
0.000445811
0.000391701
0.000353867
0.000330846
0.000318535
0.000313102
0.000313108
0.000318553
0.000330881
0.000353932
0.00039181
0.000445963
0.000515023
0.00058414
0.000615761
0.000576878
0.000476683
0.000508932
0.000518384
0.000494472
0.000449261
0.00040138
0.000362819
0.000338471
0.000325197
0.000319303
0.000319308
0.000325215
0.000338508
0.000362884
0.000401482
0.000449391
0.0004946
0.000518471
0.000508961
0.000476676
0.000415664
0.00043501
0.000450607
0.000451798
0.000433562
0.000401939
0.000369068
0.000345706
0.000332288
0.0003262
0.000326206
0.000332307
0.000345742
0.000369128
0.000402026
0.000433659
0.000451885
0.000450662
0.000435029
0.000415661
0.000373819
0.000385119
0.000397041
0.000405269
0.000403915
0.000390314
0.000369034
0.000350408
0.000338568
0.000332938
0.000332943
0.000338585
0.00035044
0.000369083
0.000390378
0.000403981
0.000405324
0.000397074
0.000385128
0.000373815
0.000345136
0.000351913
0.000359837
0.00036758
0.000372301
0.000370532
0.000361442
0.000350331
0.00034207
0.000337832
0.000337836
0.000342084
0.000350354
0.000361477
0.000370574
0.000372342
0.000367613
0.000359854
0.000351915
0.000345127
0.000328171
0.000332619
0.000338059
0.000344088
0.000349571
0.000352457
0.000350859
0.000346194
0.000341831
0.000339357
0.00033936
0.00034184
0.00034621
0.000350882
0.000352484
0.000349596
0.000344107
0.000338066
0.000332613
0.000328156
0.000318256
0.000321569
0.000325701
0.000330532
0.000335613
0.000339892
0.000341849
0.00034118
0.00033968
0.00033864
0.000338642
0.000339686
0.000341191
0.000341864
0.000339909
0.000335629
0.000330543
0.000325701
0.000321559
0.000318238
0.000312304
0.000315008
0.000318415
0.00032251
0.000327116
0.000331701
0.000335213
0.000336749
0.000337054
0.000336989
0.000336991
0.000337058
0.000336756
0.000335223
0.000331712
0.000327127
0.000322516
0.000318412
0.000314994
0.000312284
0.000308718
0.000311083
0.000314078
0.000317728
0.000321977
0.000326542
0.000330688
0.000333349
0.000334681
0.000335205
0.000335206
0.000334684
0.000333354
0.000330694
0.000326549
0.000321984
0.000317732
0.000314072
0.000311067
0.000308696
0.000306594
0.000308769
0.000311526
0.000314911
0.000318919
0.000323386
0.00032776
0.000330956
0.000332825
0.000333673
0.000333673
0.000332826
0.000330958
0.000327764
0.000323391
0.000318923
0.000314912
0.000311519
0.000308751
0.00030657
0.000305393
0.000307462
0.000310082
0.000313309
0.000317159
0.000321526
0.000325953
0.000329374
0.000331496
0.000332505
0.000332505
0.000331497
0.000329376
0.000325955
0.000321529
0.000317161
0.000313308
0.000310073
0.000307443
0.000305368
0.000304789
0.0003068
0.000309341
0.000312472
0.000316217
0.000320495
0.000324896
0.000328381
0.000330599
0.000331672
0.000331672
0.000330599
0.000328382
0.000324898
0.000320498
0.000316218
0.000312469
0.000309329
0.000306778
0.000304761
0.000304611
0.000306594
0.000309093
0.000312169
0.000315848
0.000320051
0.000324387
0.000327846
0.000330064
0.000331145
0.000331145
0.000330065
0.000327847
0.000324389
0.000320053
0.000315848
0.000312164
0.000309078
0.000306567
0.000304577
0.000304635
0.000306608
0.00030909
0.000312141
0.000315779
0.00031992
0.000324179
0.000327574
0.000329755
0.000330819
0.000330819
0.000329755
0.000327575
0.000324181
0.000319923
0.000315779
0.000312134
0.000309071
0.000306575
0.000304592
0.000304715
0.000306691
0.000309176
0.000312225
0.000315839
0.000319924
0.000324103
0.000327424
0.000329555
0.000330594
0.000330594
0.000329556
0.000327426
0.000324105
0.000319927
0.000315839
0.000312217
0.000309155
0.000306651
0.000304662
0.000304766
0.000306769
0.000309289
0.000312354
0.000315949
0.000319979
0.000324078
0.000327328
0.000329409
0.000330423
0.000330423
0.00032941
0.00032733
0.000324081
0.000319983
0.00031595
0.000312346
0.000309266
0.000306724
0.000304704
0.000304719
0.000306817
0.000309412
0.000312501
0.000316074
0.00032005
0.000324075
0.000327261
0.000329297
0.000330288
0.000330288
0.000329298
0.000327263
0.000324078
0.000320054
0.000316075
0.000312493
0.00030939
0.00030677
0.000304655
0.000304498
0.000306879
0.00030956
0.000312654
0.000316197
0.000320122
0.000324082
0.000327214
0.000329211
0.000330182
0.000330182
0.000329211
0.000327216
0.000324085
0.000320126
0.000316198
0.000312646
0.000309536
0.000306833
0.00030444
)
;

boundaryField
{
    defaultFaces
    {
        type            empty;
    }
}


// ************************************************************************* //
