/*--------------------------------*- C++ -*----------------------------------*\
  =========                 |
  \\      /  F ield         | OpenFOAM: The Open Source CFD Toolbox
   \\    /   O peration     | Website:  https://openfoam.org
    \\  /    A nd           | Version:  11
     \\/     M anipulation  |
\*---------------------------------------------------------------------------*/
FoamFile
{
    format      ascii;
    class       volScalarField;
    location    "4.5";
    object      nut;
}
// * * * * * * * * * * * * * * * * * * * * * * * * * * * * * * * * * * * * * //

dimensions      [0 2 -1 0 0 0 0];

internalField   nonuniform List<scalar> 
400
(
0.000483594
0.000321306
0.0002398
0.000198123
0.000172404
0.000154563
0.000142162
0.000133959
0.000129625
0.000127682
0.000127684
0.000129633
0.000133974
0.000142188
0.000154604
0.000172457
0.000198186
0.000239869
0.000321372
0.000483659
0.00032487
0.000310004
0.000257028
0.000211817
0.000180749
0.000159607
0.000145305
0.000136351
0.000131569
0.000129443
0.000129445
0.000131577
0.000136366
0.000145333
0.00015965
0.000180804
0.00021188
0.000257093
0.000310058
0.000324906
0.00024288
0.000259283
0.00024599
0.000216929
0.000187884
0.000165069
0.000149048
0.000139242
0.000133965
0.000131624
0.000131627
0.000133973
0.000139259
0.000149077
0.000165113
0.000187938
0.000216988
0.000246044
0.000259322
0.000242901
0.000200723
0.000214355
0.000218379
0.000208351
0.000189334
0.000169143
0.000152815
0.000142446
0.000136758
0.00013422
0.000134222
0.000136767
0.000142463
0.000152845
0.000169185
0.000189383
0.0002084
0.00021842
0.000214381
0.000200737
0.000175012
0.000183203
0.000189814
0.00019035
0.000182686
0.000169345
0.000155419
0.000145467
0.000139716
0.000137095
0.000137098
0.000139725
0.000145483
0.000155447
0.000169382
0.000182726
0.000190387
0.000189842
0.000183219
0.00017502
0.000157293
0.000162091
0.000167155
0.000170656
0.000170105
0.00016436
0.00015533
0.000147383
0.000142302
0.000139876
0.000139878
0.00014231
0.000147397
0.000155352
0.000164389
0.000170133
0.00017068
0.000167171
0.0001621
0.000157296
0.000145031
0.000147919
0.000151295
0.000154593
0.000156607
0.00015586
0.000151986
0.000147225
0.000143668
0.000141836
0.000141837
0.000143674
0.000147236
0.000152002
0.000155879
0.000156624
0.000154606
0.000151302
0.000147921
0.000145029
0.000137658
0.000139558
0.000141881
0.000144453
0.000146791
0.000148016
0.00014732
0.000145301
0.000143407
0.000142329
0.00014233
0.000143411
0.000145309
0.000147331
0.000148028
0.000146801
0.00014446
0.000141884
0.000139556
0.000137654
0.000133258
0.000134672
0.000136436
0.000138497
0.000140662
0.000142479
0.000143297
0.000142985
0.000142317
0.000141856
0.000141857
0.000142321
0.00014299
0.000143305
0.000142487
0.000140668
0.000138501
0.000136436
0.000134668
0.000133251
0.000130546
0.000131697
0.000133148
0.00013489
0.000136849
0.000138796
0.000140279
0.000140914
0.000141025
0.000140985
0.000140986
0.000141027
0.000140918
0.000140284
0.000138801
0.000136853
0.000134892
0.000133146
0.000131692
0.000130538
0.000128862
0.000129864
0.000131133
0.00013268
0.000134482
0.000136417
0.000138172
0.000139295
0.000139852
0.000140069
0.00014007
0.000139853
0.000139297
0.000138175
0.00013642
0.000134484
0.00013268
0.00013113
0.000129857
0.000128853
0.000127829
0.000128745
0.000129908
0.000131336
0.000133029
0.000134919
0.000136773
0.000138129
0.000138923
0.000139282
0.000139283
0.000138923
0.000138131
0.000136775
0.000134922
0.000133031
0.000131335
0.000129904
0.000128737
0.000127819
0.000127219
0.000128086
0.000129186
0.000130543
0.000132164
0.000134008
0.000135884
0.00013734
0.000138247
0.000138679
0.000138679
0.000138247
0.000137341
0.000135885
0.000134009
0.000132164
0.000130541
0.000129181
0.000128078
0.000127208
0.000126892
0.000127732
0.000128795
0.000130107
0.00013168
0.000133483
0.000135347
0.000136834
0.000137784
0.000138246
0.000138246
0.000137785
0.000136834
0.000135349
0.000133484
0.00013168
0.000130104
0.000128789
0.000127722
0.00012688
0.000126775
0.000127602
0.000128645
0.000129932
0.000131474
0.000133243
0.00013508
0.000136556
0.00013751
0.000137976
0.000137976
0.00013751
0.000136557
0.000135081
0.000133244
0.000131473
0.000129928
0.000128637
0.00012759
0.00012676
0.000126763
0.000127585
0.000128621
0.000129896
0.00013142
0.000133162
0.000134966
0.000136416
0.000137354
0.000137814
0.000137814
0.000137355
0.000136417
0.000134967
0.000133163
0.000131419
0.000129891
0.000128611
0.00012757
0.000126745
0.000126784
0.000127608
0.000128645
0.000129919
0.000131433
0.000133151
0.00013492
0.00013634
0.000137258
0.000137708
0.000137708
0.000137258
0.000136341
0.000134922
0.000133152
0.000131431
0.000129913
0.000128634
0.000127591
0.000126763
0.000126799
0.000127634
0.000128686
0.000129967
0.000131473
0.000133168
0.000134904
0.000136294
0.000137192
0.000137631
0.000137631
0.000137192
0.000136295
0.000134906
0.000133169
0.000131471
0.000129961
0.000128674
0.000127616
0.000126776
0.000126779
0.000127653
0.000128736
0.000130027
0.000131523
0.000133195
0.000134901
0.000136264
0.000137143
0.000137573
0.000137573
0.000137143
0.000136265
0.000134902
0.000133196
0.000131521
0.000130021
0.000128724
0.000127634
0.000126754
0.000126688
0.000127679
0.000128797
0.00013009
0.000131574
0.000133225
0.000134903
0.000136244
0.000137106
0.000137528
0.000137528
0.000137106
0.000136244
0.000134904
0.000133226
0.000131572
0.000130084
0.000128785
0.00012766
0.000126665
)
;

boundaryField
{
    defaultFaces
    {
        type            empty;
    }
}


// ************************************************************************* //
