/*--------------------------------*- C++ -*----------------------------------*\
  =========                 |
  \\      /  F ield         | OpenFOAM: The Open Source CFD Toolbox
   \\    /   O peration     | Website:  https://openfoam.org
    \\  /    A nd           | Version:  11
     \\/     M anipulation  |
\*---------------------------------------------------------------------------*/
FoamFile
{
    format      ascii;
    class       volScalarField;
    location    "5.5";
    object      epsilon;
}
// * * * * * * * * * * * * * * * * * * * * * * * * * * * * * * * * * * * * * //

dimensions      [0 2 -3 0 0 0 0];

internalField   nonuniform List<scalar> 
400
(
0.00017075
0.000113366
8.45698e-05
6.9824e-05
6.07216e-05
5.44197e-05
5.00563e-05
4.71833e-05
4.56733e-05
4.49994e-05
4.50004e-05
4.56767e-05
4.71899e-05
5.00682e-05
5.44399e-05
6.07524e-05
6.98664e-05
8.46168e-05
0.000113395
0.00017075
0.000114627
0.000109347
9.06079e-05
7.46237e-05
6.36446e-05
5.61854e-05
5.11571e-05
4.80228e-05
4.63577e-05
4.56204e-05
4.56215e-05
4.63612e-05
4.80298e-05
5.11697e-05
5.62068e-05
6.36766e-05
7.46646e-05
9.06465e-05
0.000109366
0.000114624
8.5662e-05
9.14085e-05
8.66883e-05
7.64065e-05
6.61436e-05
5.80986e-05
5.24691e-05
4.90386e-05
4.72014e-05
4.63898e-05
4.63909e-05
4.72051e-05
4.90459e-05
5.24822e-05
5.81202e-05
6.61738e-05
7.64409e-05
8.67156e-05
9.14196e-05
8.56609e-05
7.07475e-05
7.5527e-05
7.69237e-05
7.33659e-05
6.66445e-05
5.95266e-05
5.37915e-05
5.01656e-05
4.81857e-05
4.73057e-05
4.73069e-05
4.81894e-05
5.0173e-05
5.38045e-05
5.95468e-05
6.66701e-05
7.33914e-05
7.69415e-05
7.55343e-05
7.07484e-05
6.16461e-05
6.45184e-05
6.68335e-05
6.70089e-05
6.42981e-05
5.95975e-05
5.47091e-05
5.12308e-05
4.923e-05
4.83213e-05
4.83224e-05
4.92337e-05
5.12379e-05
5.47209e-05
5.96144e-05
6.43172e-05
6.7026e-05
6.68447e-05
6.45233e-05
6.16473e-05
5.53844e-05
5.70677e-05
5.88433e-05
6.00694e-05
5.98712e-05
5.78513e-05
5.46867e-05
5.19129e-05
5.01469e-05
4.93063e-05
4.93073e-05
5.01502e-05
5.19191e-05
5.46963e-05
5.78636e-05
5.98839e-05
6.008e-05
5.88499e-05
5.70704e-05
5.53847e-05
5.10679e-05
5.20827e-05
5.32685e-05
5.44276e-05
5.51368e-05
5.48789e-05
5.35285e-05
5.18728e-05
5.06396e-05
5.00062e-05
5.0007e-05
5.06423e-05
5.18775e-05
5.35353e-05
5.48868e-05
5.51443e-05
5.44336e-05
5.32718e-05
5.20833e-05
5.10667e-05
4.84907e-05
4.91599e-05
4.99779e-05
5.08842e-05
5.17092e-05
5.21462e-05
5.19121e-05
5.12168e-05
5.05644e-05
5.0194e-05
5.01946e-05
5.05663e-05
5.122e-05
5.19164e-05
5.2151e-05
5.17136e-05
5.08875e-05
4.99791e-05
4.9159e-05
4.84884e-05
4.69681e-05
4.74674e-05
4.80897e-05
4.88173e-05
4.95824e-05
5.02272e-05
5.05234e-05
5.04241e-05
5.01991e-05
5.00429e-05
5.00434e-05
5.02004e-05
5.04262e-05
5.05261e-05
5.02302e-05
4.9585e-05
4.88191e-05
4.80898e-05
4.74657e-05
4.69653e-05
4.60415e-05
4.64484e-05
4.6961e-05
4.75769e-05
4.82697e-05
4.89589e-05
4.94864e-05
4.97164e-05
4.97611e-05
4.97507e-05
4.9751e-05
4.97619e-05
4.97177e-05
4.94882e-05
4.89608e-05
4.82713e-05
4.75778e-05
4.69604e-05
4.64462e-05
4.60382e-05
4.54736e-05
4.58282e-05
4.62772e-05
4.68245e-05
4.74615e-05
4.81456e-05
4.87663e-05
4.9164e-05
4.93623e-05
4.94401e-05
4.94403e-05
4.93628e-05
4.91649e-05
4.87675e-05
4.81468e-05
4.74625e-05
4.68248e-05
4.62761e-05
4.58256e-05
4.54701e-05
4.51299e-05
4.54544e-05
4.58659e-05
4.63713e-05
4.69697e-05
4.76369e-05
4.82898e-05
4.87666e-05
4.90451e-05
4.91714e-05
4.91715e-05
4.90455e-05
4.87672e-05
4.82906e-05
4.76376e-05
4.69702e-05
4.63712e-05
4.58645e-05
4.54515e-05
4.51261e-05
4.49298e-05
4.5237e-05
4.56264e-05
4.6106e-05
4.66786e-05
4.73285e-05
4.79876e-05
4.84972e-05
4.88135e-05
4.89637e-05
4.89637e-05
4.88137e-05
4.84976e-05
4.79881e-05
4.7329e-05
4.66788e-05
4.61056e-05
4.56247e-05
4.52339e-05
4.49257e-05
4.48244e-05
4.51219e-05
4.5498e-05
4.59617e-05
4.65168e-05
4.71516e-05
4.78052e-05
4.83235e-05
4.86537e-05
4.88136e-05
4.88137e-05
4.86538e-05
4.83238e-05
4.78056e-05
4.71518e-05
4.65168e-05
4.5961e-05
4.54959e-05
4.51182e-05
4.48198e-05
4.47886e-05
4.50812e-05
4.54502e-05
4.59047e-05
4.64487e-05
4.70709e-05
4.77138e-05
4.82276e-05
4.85577e-05
4.87187e-05
4.87188e-05
4.85578e-05
4.82278e-05
4.77142e-05
4.70711e-05
4.64484e-05
4.59036e-05
4.54474e-05
4.50767e-05
4.4783e-05
4.47875e-05
4.50782e-05
4.5444e-05
4.58942e-05
4.64314e-05
4.70438e-05
4.76746e-05
4.81786e-05
4.8503e-05
4.86615e-05
4.86615e-05
4.85032e-05
4.81789e-05
4.7675e-05
4.7044e-05
4.64311e-05
4.58927e-05
4.54407e-05
4.50726e-05
4.47804e-05
4.47971e-05
4.5088e-05
4.54541e-05
4.59035e-05
4.64367e-05
4.70404e-05
4.76591e-05
4.81521e-05
4.8469e-05
4.86239e-05
4.86239e-05
4.84692e-05
4.81523e-05
4.76594e-05
4.70407e-05
4.64364e-05
4.59019e-05
4.54503e-05
4.50813e-05
4.47884e-05
4.48038e-05
4.50984e-05
4.54693e-05
4.59209e-05
4.64512e-05
4.70466e-05
4.76534e-05
4.81357e-05
4.84453e-05
4.85964e-05
4.85964e-05
4.84454e-05
4.8136e-05
4.76538e-05
4.7047e-05
4.6451e-05
4.59194e-05
4.54653e-05
4.50908e-05
4.47934e-05
4.47962e-05
4.51048e-05
4.54868e-05
4.59418e-05
4.64689e-05
4.70562e-05
4.7652e-05
4.81249e-05
4.84278e-05
4.85755e-05
4.85756e-05
4.8428e-05
4.81252e-05
4.76525e-05
4.70566e-05
4.64687e-05
4.59403e-05
4.54828e-05
4.5097e-05
4.47857e-05
4.47635e-05
4.51137e-05
4.55084e-05
4.59642e-05
4.64868e-05
4.70666e-05
4.76528e-05
4.81177e-05
4.84148e-05
4.85596e-05
4.85596e-05
4.8415e-05
4.8118e-05
4.76532e-05
4.7067e-05
4.64865e-05
4.59625e-05
4.5504e-05
4.51061e-05
4.47539e-05
)
;

boundaryField
{
    defaultFaces
    {
        type            empty;
    }
}


// ************************************************************************* //
