/*--------------------------------*- C++ -*----------------------------------*\
  =========                 |
  \\      /  F ield         | OpenFOAM: The Open Source CFD Toolbox
   \\    /   O peration     | Website:  https://openfoam.org
    \\  /    A nd           | Version:  11
     \\/     M anipulation  |
\*---------------------------------------------------------------------------*/
FoamFile
{
    format      ascii;
    class       volScalarField;
    location    "5.5";
    object      k;
}
// * * * * * * * * * * * * * * * * * * * * * * * * * * * * * * * * * * * * * //

dimensions      [0 2 -2 0 0 0 0];

internalField   nonuniform List<scalar> 
400
(
0.000955163
0.000634406
0.000473399
0.000391034
0.00034022
0.000305019
0.000280591
0.000264444
0.000255922
0.000252107
0.000252113
0.000255941
0.000264479
0.000280649
0.000305111
0.000340352
0.000391209
0.000473594
0.000634551
0.000955233
0.000641428
0.000611993
0.000507285
0.000417964
0.000356622
0.00031493
0.000286771
0.000269154
0.000259756
0.000255581
0.000255588
0.000259776
0.000269191
0.000286833
0.000315027
0.00035676
0.000418137
0.000507454
0.000612099
0.000641461
0.000479421
0.000511711
0.000485404
0.000427981
0.000370639
0.00032566
0.000294127
0.000274844
0.000264475
0.00025988
0.000259886
0.000264495
0.000274882
0.000294191
0.000325759
0.000370772
0.000428132
0.000485533
0.000511783
0.000479445
0.000396031
0.000422888
0.000430798
0.000410978
0.000373444
0.00033365
0.000301523
0.000281139
0.000269964
0.000264982
0.000264989
0.000269986
0.000281179
0.000301587
0.000333744
0.000373561
0.000411096
0.000430889
0.000422938
0.000396053
0.000345106
0.000361264
0.000374308
0.00037537
0.000360268
0.000333999
0.000306611
0.000287053
0.000275758
0.000270612
0.000270618
0.000275779
0.000287091
0.000306671
0.000334081
0.00036036
0.000375455
0.00037437
0.0003613
0.000345125
0.000309954
0.000319446
0.000329463
0.000336405
0.000335364
0.000324095
0.00030636
0.000290751
0.000280774
0.000276011
0.000276017
0.000280793
0.000290785
0.000306411
0.000324158
0.000335428
0.000336462
0.000329503
0.000319469
0.000309966
0.000285535
0.000291277
0.000297987
0.000304552
0.000308593
0.000307193
0.000299625
0.000290291
0.00028331
0.000279713
0.000279719
0.000283326
0.000290318
0.000299662
0.000307236
0.000308634
0.000304586
0.000298009
0.000291287
0.000285537
0.000270735
0.000274532
0.000279173
0.000284316
0.000289003
0.000291501
0.000290199
0.000286266
0.000282557
0.000280446
0.00028045
0.000282569
0.000286285
0.000290224
0.000291529
0.000289028
0.000284336
0.000279183
0.000274532
0.000270729
0.000261812
0.000264647
0.000268179
0.00027231
0.000276654
0.000280315
0.000281995
0.000281422
0.000280129
0.00027923
0.000279232
0.000280136
0.000281435
0.000282011
0.000280332
0.000276669
0.000272321
0.000268182
0.000264642
0.000261802
0.000256243
0.000258547
0.000261451
0.000264941
0.000268867
0.000272771
0.000275752
0.000277039
0.000277275
0.000277205
0.000277206
0.00027728
0.000277048
0.000275762
0.000272781
0.000268876
0.000264947
0.00026145
0.000258538
0.000256229
0.000252722
0.000254722
0.000257256
0.000260346
0.000263945
0.000267808
0.000271311
0.000273548
0.000274658
0.00027509
0.000275091
0.000274661
0.000273554
0.000271317
0.000267815
0.000263949
0.000260348
0.000257251
0.000254711
0.000252706
0.000250511
0.000252332
0.000254643
0.000257484
0.000260852
0.000264609
0.000268287
0.000270973
0.00027254
0.00027325
0.00027325
0.000272542
0.000270976
0.000268291
0.000264612
0.000260854
0.000257484
0.000254637
0.000252318
0.000250493
0.000249161
0.000250877
0.000253055
0.00025574
0.00025895
0.000262599
0.000266305
0.000269176
0.000270959
0.000271807
0.000271808
0.00027096
0.000269178
0.000266307
0.0002626
0.00025895
0.000255737
0.000253046
0.000250862
0.000249141
0.000248397
0.000250052
0.000252149
0.000254736
0.000257838
0.000261393
0.000265063
0.000267982
0.000269846
0.000270751
0.000270751
0.000269847
0.000267983
0.000265064
0.000261393
0.000257837
0.000254731
0.000252137
0.000250034
0.000248374
0.000248083
0.000249708
0.00025176
0.000254291
0.000257326
0.000260806
0.000264413
0.000267305
0.000269171
0.000270083
0.000270083
0.000269171
0.000267307
0.000264413
0.000260806
0.000257323
0.000254284
0.000251746
0.000249686
0.000248056
0.000248012
0.000249625
0.000251658
0.000254163
0.000257158
0.000260581
0.000264118
0.000266957
0.000268791
0.000269689
0.000269689
0.000268792
0.000266958
0.000264119
0.00026058
0.000257154
0.000254154
0.000251641
0.000249598
0.000247979
0.00024803
0.000249643
0.000251677
0.000254177
0.00025715
0.000260524
0.000263993
0.000266771
0.000268563
0.000269442
0.000269442
0.000268564
0.000266772
0.000263994
0.000260523
0.000257146
0.000254168
0.000251658
0.000249612
0.00024799
0.000248048
0.000249682
0.000251743
0.000254256
0.000257213
0.00026054
0.000263944
0.000266662
0.000268414
0.000269271
0.000269272
0.000268414
0.000266663
0.000263945
0.00026054
0.000257209
0.000254246
0.000251723
0.000249647
0.000248001
0.000248001
0.000249712
0.000251834
0.000254365
0.000257303
0.000260586
0.000263929
0.000266595
0.000268309
0.000269148
0.000269149
0.00026831
0.000266596
0.00026393
0.000260586
0.0002573
0.000254356
0.000251814
0.000249676
0.000247953
0.000247819
0.00024976
0.000251951
0.000254487
0.0002574
0.000260641
0.000263931
0.000266552
0.000268235
0.000269058
0.000269058
0.000268236
0.000266553
0.000263932
0.000260641
0.000257396
0.000254476
0.00025193
0.000249725
0.000247775
)
;

boundaryField
{
    defaultFaces
    {
        type            empty;
    }
}


// ************************************************************************* //
