/*--------------------------------*- C++ -*----------------------------------*\
  =========                 |
  \\      /  F ield         | OpenFOAM: The Open Source CFD Toolbox
   \\    /   O peration     | Website:  https://openfoam.org
    \\  /    A nd           | Version:  11
     \\/     M anipulation  |
\*---------------------------------------------------------------------------*/
FoamFile
{
    format      ascii;
    class       volScalarField;
    location    "5.5";
    object      nut;
}
// * * * * * * * * * * * * * * * * * * * * * * * * * * * * * * * * * * * * * //

dimensions      [0 2 -1 0 0 0 0];

internalField   nonuniform List<scalar> 
400
(
0.00048088
0.000319517
0.000238496
0.000197091
0.000171561
0.000153865
0.000141557
0.00013339
0.000129061
0.000127117
0.00012712
0.000129071
0.000133406
0.000141582
0.000153901
0.000171608
0.000197148
0.000238561
0.000319582
0.000480949
0.000323036
0.000308267
0.000255612
0.00021069
0.000179845
0.000158872
0.000144679
0.000135768
0.000130994
0.000128867
0.00012887
0.000131004
0.000135785
0.000144706
0.00015891
0.000179894
0.000210748
0.000255673
0.000308322
0.000323077
0.000241484
0.000257814
0.000244618
0.000215755
0.00018692
0.000164287
0.000148392
0.000138636
0.000133369
0.000131028
0.000131031
0.00013338
0.000138654
0.000148419
0.000164326
0.000186969
0.00021581
0.000244671
0.000257855
0.000241511
0.000199521
0.000213103
0.000217135
0.000207198
0.000188334
0.000168311
0.000152114
0.000141801
0.000136125
0.000133586
0.00013359
0.000136136
0.00014182
0.000152142
0.00016835
0.00018838
0.000207245
0.000217176
0.000213134
0.000199542
0.000173877
0.000182058
0.000188671
0.000189247
0.000181676
0.000168463
0.000154653
0.000144755
0.000139017
0.000136395
0.000136398
0.000139028
0.000144774
0.00015468
0.000168498
0.000181714
0.000189285
0.000188702
0.00018208
0.000173892
0.000156117
0.000160934
0.00016602
0.000169557
0.000169066
0.000163409
0.000154464
0.000146558
0.000141486
0.000139057
0.00013906
0.000141496
0.000146575
0.000154487
0.000163437
0.000169096
0.000169584
0.000166041
0.000160949
0.000156128
0.000143686
0.000146609
0.000150026
0.000153372
0.000155443
0.000154761
0.000150943
0.000146208
0.000142651
0.000140814
0.000140817
0.00014266
0.000146221
0.000150962
0.000154782
0.000155464
0.00015339
0.000150039
0.000146618
0.000143691
0.000136042
0.00013798
0.000140349
0.000142976
0.000145372
0.000146657
0.000146005
0.000144002
0.000142106
0.000141023
0.000141025
0.000142112
0.000144012
0.000146018
0.00014667
0.000145385
0.000142986
0.000140356
0.000137983
0.000136042
0.000131347
0.000132794
0.000134599
0.000136708
0.000138927
0.000140798
0.000141656
0.000141358
0.000140689
0.000140224
0.000140226
0.000140694
0.000141365
0.000141664
0.000140807
0.000138935
0.000136714
0.000134602
0.000132794
0.000131344
0.00012835
0.000129524
0.000131005
0.000132784
0.000134786
0.000136775
0.000138291
0.00013894
0.000139051
0.000139009
0.00013901
0.000139054
0.000138944
0.000138296
0.00013678
0.00013479
0.000132787
0.000131005
0.000129522
0.000128345
0.000126407
0.000127422
0.000128708
0.000130278
0.000132107
0.000134071
0.000135849
0.000136982
0.000137541
0.000137757
0.000137757
0.000137543
0.000136985
0.000135852
0.000134074
0.000132109
0.000130279
0.000128707
0.000127417
0.000126401
0.00012515
0.00012607
0.000127238
0.000128675
0.00013038
0.000132284
0.000134148
0.00013551
0.000136303
0.000136662
0.000136663
0.000136305
0.000135511
0.00013415
0.000132285
0.000130381
0.000128675
0.000127235
0.000126064
0.000125143
0.000124356
0.000125219
0.000126315
0.000127668
0.000129287
0.000131131
0.000133006
0.000134461
0.000135366
0.000135797
0.000135797
0.000135367
0.000134462
0.000133007
0.000131131
0.000129287
0.000127666
0.000126311
0.000125213
0.000124348
0.000123885
0.000124715
0.000125766
0.000127065
0.000128626
0.000130417
0.000132271
0.00013375
0.000134697
0.000135158
0.000135158
0.000134698
0.000133751
0.000132272
0.000130417
0.000128624
0.000127062
0.000125761
0.000124707
0.000123875
0.000123672
0.000124484
0.000125511
0.000126779
0.000128303
0.000130054
0.000131875
0.000133341
0.000134289
0.000134753
0.000134754
0.000134289
0.000133341
0.000131875
0.000130053
0.000128301
0.000126775
0.000125504
0.000124474
0.00012366
0.000123604
0.000124409
0.000125426
0.00012668
0.000128183
0.000129905
0.00013169
0.000133128
0.000134061
0.000134519
0.000134519
0.000134061
0.000133129
0.00013169
0.000129903
0.00012818
0.000126675
0.000125418
0.000124398
0.00012359
0.000123595
0.0001244
0.000125417
0.000126669
0.00012816
0.000129857
0.000131608
0.000133016
0.000133928
0.000134376
0.000134376
0.000133928
0.000133016
0.000131608
0.000129856
0.000128157
0.000126664
0.000125408
0.000124387
0.000123579
0.000123595
0.000124411
0.000125441
0.0001267
0.000128183
0.000129857
0.000131574
0.000132953
0.000133845
0.000134282
0.000134282
0.000133845
0.000132953
0.000131574
0.000129855
0.00012818
0.000126694
0.000125432
0.000124396
0.000123577
0.000123568
0.000124422
0.000125483
0.000126751
0.000128224
0.000129876
0.000131563
0.000132915
0.000133789
0.000134217
0.000134217
0.000133789
0.000132915
0.000131563
0.000129874
0.000128221
0.000126745
0.000125474
0.000124408
0.00012355
0.000123478
0.000124446
0.000125541
0.00012681
0.000128272
0.000129902
0.000131563
0.000132893
0.00013375
0.000134171
0.000134171
0.000133751
0.000132893
0.000131563
0.000129901
0.000128269
0.000126804
0.000125531
0.000124431
0.00012346
)
;

boundaryField
{
    defaultFaces
    {
        type            empty;
    }
}


// ************************************************************************* //
