/*--------------------------------*- C++ -*----------------------------------*\
  =========                 |
  \\      /  F ield         | OpenFOAM: The Open Source CFD Toolbox
   \\    /   O peration     | Website:  https://openfoam.org
    \\  /    A nd           | Version:  11
     \\/     M anipulation  |
\*---------------------------------------------------------------------------*/
FoamFile
{
    format      ascii;
    class       volScalarField;
    location    "4";
    object      epsilon;
}
// * * * * * * * * * * * * * * * * * * * * * * * * * * * * * * * * * * * * * //

dimensions      [0 2 -3 0 0 0 0];

internalField   nonuniform List<scalar> 
400
(
0.000302788
0.000200993
0.000149938
0.000123832
0.000107761
9.66889e-05
8.90943e-05
8.4154e-05
8.16019e-05
8.04769e-05
8.0478e-05
8.16053e-05
8.41603e-05
8.91049e-05
9.67057e-05
0.000107787
0.000123869
0.000149981
0.000201019
0.00030279
0.000203253
0.000193899
0.000160675
0.000132359
0.000112948
9.98173e-05
9.10431e-05
8.56448e-05
8.28234e-05
8.15901e-05
8.15912e-05
8.2827e-05
8.56515e-05
9.10545e-05
9.98357e-05
0.000112976
0.000132395
0.000160708
0.000193915
0.000203254
0.000151942
0.000162131
0.000153767
0.000135553
0.000117398
0.000103218
9.33748e-05
8.74551e-05
8.43346e-05
8.29736e-05
8.29748e-05
8.43383e-05
8.74622e-05
9.33869e-05
0.000103238
0.000117425
0.000135582
0.00015379
0.000162144
0.000151948
0.000125608
0.000134059
0.000136524
0.000130219
0.00011833
0.00010578
9.57422e-05
8.94768e-05
8.61078e-05
8.46291e-05
8.46304e-05
8.61117e-05
8.94842e-05
9.57545e-05
0.000105799
0.000118353
0.000130242
0.000136542
0.000134071
0.000125618
0.000109646
0.000114695
0.000118765
0.000119057
0.000114259
0.000105977
9.74262e-05
9.14177e-05
8.8012e-05
8.6484e-05
8.64852e-05
8.80159e-05
9.14248e-05
9.74378e-05
0.000105993
0.000114277
0.000119074
0.000118779
0.000114707
0.000109656
9.8798e-05
0.000101728
0.000104822
0.000106953
0.000106582
0.000103027
9.75093e-05
9.27342e-05
8.9737e-05
8.83268e-05
8.8328e-05
8.97406e-05
9.27406e-05
9.7519e-05
0.000103039
0.000106595
0.000106965
0.000104832
0.000101737
9.88056e-05
9.14928e-05
9.32359e-05
9.5277e-05
9.72724e-05
9.8486e-05
9.80231e-05
9.56871e-05
9.28642e-05
9.07911e-05
8.97376e-05
8.97385e-05
9.07939e-05
9.28691e-05
9.56941e-05
9.80313e-05
9.84941e-05
9.72797e-05
9.52831e-05
9.3241e-05
9.14971e-05
8.73175e-05
8.84546e-05
8.9848e-05
9.13939e-05
9.28021e-05
9.35479e-05
9.31555e-05
9.19968e-05
9.09227e-05
9.03186e-05
9.03193e-05
9.09247e-05
9.20001e-05
9.31599e-05
9.35528e-05
9.28068e-05
9.1398e-05
8.98513e-05
8.84571e-05
8.73194e-05
8.49904e-05
8.58375e-05
8.68956e-05
8.81339e-05
8.94385e-05
9.05433e-05
9.1065e-05
9.09277e-05
9.05798e-05
9.03372e-05
9.03376e-05
9.05811e-05
9.09297e-05
9.10677e-05
9.05461e-05
8.94412e-05
8.8136e-05
8.68971e-05
8.58385e-05
8.49909e-05
8.36769e-05
8.43732e-05
8.52512e-05
8.6306e-05
8.74932e-05
8.8678e-05
8.95952e-05
9.00136e-05
9.01167e-05
9.01161e-05
9.01164e-05
9.01175e-05
9.00148e-05
8.95967e-05
8.86795e-05
8.74946e-05
8.6307e-05
8.52517e-05
8.43733e-05
8.36766e-05
8.29444e-05
8.35604e-05
8.43401e-05
8.52888e-05
8.63913e-05
8.75746e-05
8.86514e-05
8.93484e-05
8.97031e-05
8.98458e-05
8.98459e-05
8.97036e-05
8.93491e-05
8.86522e-05
8.75754e-05
8.63919e-05
8.52891e-05
8.43399e-05
8.35599e-05
8.29436e-05
8.25511e-05
8.31245e-05
8.38504e-05
8.47389e-05
8.57869e-05
8.69502e-05
8.80844e-05
8.89105e-05
8.93933e-05
8.96125e-05
8.96126e-05
8.93935e-05
8.89108e-05
8.80847e-05
8.69505e-05
8.5787e-05
8.47387e-05
8.38498e-05
8.31236e-05
8.255e-05
8.23575e-05
8.29086e-05
8.36052e-05
8.44596e-05
8.54736e-05
8.6616e-05
8.77639e-05
8.86425e-05
8.91834e-05
8.94391e-05
8.94391e-05
8.91836e-05
8.86427e-05
8.7764e-05
8.6616e-05
8.54735e-05
8.44591e-05
8.36043e-05
8.29073e-05
8.2356e-05
8.22828e-05
8.28226e-05
8.35031e-05
8.43379e-05
8.53302e-05
8.64537e-05
8.75956e-05
8.84872e-05
8.90478e-05
8.9317e-05
8.93171e-05
8.90479e-05
8.84873e-05
8.75956e-05
8.64535e-05
8.53298e-05
8.43372e-05
8.3502e-05
8.2821e-05
8.22809e-05
8.22817e-05
8.28166e-05
8.34892e-05
8.43134e-05
8.52921e-05
8.63991e-05
8.75251e-05
8.84077e-05
8.89658e-05
8.9235e-05
8.92351e-05
8.89658e-05
8.84077e-05
8.7525e-05
8.63988e-05
8.52916e-05
8.43125e-05
8.34876e-05
8.28144e-05
8.22792e-05
8.23077e-05
8.28413e-05
8.35112e-05
8.43312e-05
8.53019e-05
8.63947e-05
8.75011e-05
8.83662e-05
8.89128e-05
8.91766e-05
8.91766e-05
8.89128e-05
8.83662e-05
8.7501e-05
8.63945e-05
8.53013e-05
8.43301e-05
8.35093e-05
8.28385e-05
8.23044e-05
8.23355e-05
8.28708e-05
8.35432e-05
8.43642e-05
8.53302e-05
8.64097e-05
8.74951e-05
8.83403e-05
8.88731e-05
8.91298e-05
8.91298e-05
8.88731e-05
8.83404e-05
8.74951e-05
8.64095e-05
8.53298e-05
8.43632e-05
8.3541e-05
8.28673e-05
8.23311e-05
8.23507e-05
8.28937e-05
8.35765e-05
8.44033e-05
8.53656e-05
8.64312e-05
8.74957e-05
8.83216e-05
8.88407e-05
8.90904e-05
8.90905e-05
8.88407e-05
8.83216e-05
8.74957e-05
8.64311e-05
8.53653e-05
8.44024e-05
8.35743e-05
8.28898e-05
8.23455e-05
8.23395e-05
8.29087e-05
8.36122e-05
8.44458e-05
8.54025e-05
8.64536e-05
8.74983e-05
8.83069e-05
8.88137e-05
8.90573e-05
8.90573e-05
8.88138e-05
8.8307e-05
8.74983e-05
8.64535e-05
8.54021e-05
8.44448e-05
8.361e-05
8.29048e-05
8.23346e-05
8.22821e-05
8.29273e-05
8.36537e-05
8.44884e-05
8.54369e-05
8.64742e-05
8.75014e-05
8.82953e-05
8.87916e-05
8.90297e-05
8.90298e-05
8.87916e-05
8.82954e-05
8.75014e-05
8.64741e-05
8.54365e-05
8.44873e-05
8.36513e-05
8.29235e-05
8.22776e-05
)
;

boundaryField
{
    defaultFaces
    {
        type            empty;
    }
}


// ************************************************************************* //
