/*--------------------------------*- C++ -*----------------------------------*\
  =========                 |
  \\      /  F ield         | OpenFOAM: The Open Source CFD Toolbox
   \\    /   O peration     | Website:  https://openfoam.org
    \\  /    A nd           | Version:  11
     \\/     M anipulation  |
\*---------------------------------------------------------------------------*/
FoamFile
{
    format      ascii;
    class       volScalarField;
    location    "4";
    object      k;
}
// * * * * * * * * * * * * * * * * * * * * * * * * * * * * * * * * * * * * * //

dimensions      [0 2 -2 0 0 0 0];

internalField   nonuniform List<scalar> 
400
(
0.00127744
0.000848312
0.000632861
0.000522655
0.000454754
0.000407878
0.000375565
0.000354382
0.000343321
0.000338405
0.00033841
0.000343336
0.00035441
0.000375613
0.000407964
0.000454898
0.000522868
0.000633104
0.000848434
0.00127736
0.000857808
0.000818405
0.000678272
0.000558734
0.000476708
0.000421121
0.000383814
0.000360679
0.000348463
0.000343079
0.000343084
0.000348479
0.000360708
0.000383866
0.000421216
0.000476862
0.000558938
0.000678454
0.000818456
0.000857726
0.000641217
0.000684354
0.000649092
0.000572213
0.000495509
0.000435495
0.000393665
0.000368314
0.000354818
0.000348884
0.000348889
0.000354834
0.000368345
0.000393721
0.000435593
0.000495656
0.000572381
0.000649213
0.000684374
0.000641164
0.00052996
0.000565761
0.000576228
0.000549625
0.000499392
0.000446283
0.000403639
0.00037682
0.000362262
0.000355821
0.000355827
0.000362278
0.000376851
0.000403694
0.000446375
0.000499516
0.000549748
0.000576305
0.000565774
0.000529936
0.000462393
0.000483813
0.000501074
0.000502344
0.000482069
0.000447007
0.000410667
0.00038494
0.000370225
0.000363572
0.000363577
0.000370241
0.00038497
0.000410717
0.000447084
0.000482162
0.000502428
0.000501125
0.000483826
0.000462385
0.000416287
0.000428744
0.000441891
0.000450946
0.000449398
0.000434322
0.000410823
0.000390334
0.000377361
0.000371214
0.000371219
0.000377376
0.000390361
0.000410865
0.000434379
0.000449461
0.000451002
0.000441925
0.000428754
0.000416282
0.00038495
0.000392384
0.000401081
0.00040958
0.000414748
0.000412768
0.000402754
0.000390564
0.00038154
0.000376925
0.000376929
0.000381552
0.000390585
0.000402784
0.000412807
0.000414789
0.000409615
0.000401102
0.000392387
0.000384941
0.000366687
0.000371549
0.0003775
0.000384098
0.000390101
0.000393259
0.000391512
0.000386428
0.000381692
0.000379015
0.000379018
0.000381701
0.000386443
0.000391532
0.000393284
0.000390127
0.000384121
0.00037751
0.000371545
0.000366673
0.000356227
0.000359846
0.000364363
0.000369648
0.000375211
0.000379905
0.000382072
0.000381379
0.000379782
0.000378675
0.000378677
0.000379788
0.000381389
0.000382085
0.000379921
0.000375228
0.000369662
0.000364367
0.000359837
0.000356209
0.000350111
0.000353074
0.000356809
0.000361298
0.000366353
0.000371391
0.000375266
0.000376987
0.00037736
0.000377314
0.000377315
0.000377363
0.000376993
0.000375274
0.0003714
0.000366364
0.000361307
0.000356808
0.000353062
0.000350091
0.000346547
0.000349152
0.000352451
0.000356472
0.000361152
0.000366181
0.000370755
0.000373703
0.000375189
0.000375779
0.00037578
0.000375191
0.000373706
0.00037076
0.000366187
0.000361159
0.000356478
0.000352448
0.000349138
0.000346525
0.000344523
0.000346933
0.000349988
0.000353736
0.00035817
0.000363108
0.000367938
0.000371464
0.000373528
0.000374465
0.000374466
0.000373529
0.000371466
0.00036794
0.000363112
0.000358175
0.00035374
0.000349984
0.000346917
0.000344499
0.000343441
0.000345747
0.000348666
0.000352256
0.000356533
0.000361376
0.00036627
0.00037004
0.000372374
0.00037348
0.000373481
0.000372374
0.000370041
0.000366271
0.000361378
0.000356537
0.000352258
0.000348659
0.00034573
0.000343416
0.000342946
0.000345197
0.00034804
0.000351537
0.000355714
0.000360471
0.000365343
0.000369181
0.000371612
0.000372786
0.000372786
0.000371612
0.000369181
0.000365343
0.000360472
0.000355716
0.000351538
0.000348032
0.000345178
0.000342919
0.000342846
0.000345072
0.000347874
0.00035132
0.000355433
0.000360116
0.000364922
0.00036873
0.000371159
0.000372338
0.000372338
0.000371159
0.00036873
0.000364923
0.000360118
0.000355435
0.000351321
0.000347864
0.000345048
0.000342814
0.00034292
0.000345137
0.000347924
0.000351346
0.000355419
0.00036004
0.000364763
0.0003685
0.000370885
0.000372044
0.000372044
0.000370885
0.0003685
0.000364764
0.000360041
0.000355422
0.000351345
0.000347911
0.000345108
0.000342879
0.000343032
0.000345254
0.000348046
0.000351467
0.000355516
0.000360078
0.000364714
0.000368369
0.000370697
0.000371827
0.000371828
0.000370697
0.000368369
0.000364715
0.000360081
0.00035552
0.000351467
0.000348031
0.000345218
0.000342981
0.000343101
0.000345353
0.000348184
0.000351624
0.000355654
0.000360155
0.000364703
0.000368278
0.00037055
0.000371652
0.000371652
0.00037055
0.000368278
0.000364704
0.000360159
0.000355659
0.000351625
0.000348168
0.000345311
0.000343038
0.000343051
0.000345411
0.000348327
0.000351794
0.0003558
0.000360241
0.000364706
0.000368209
0.000370431
0.000371507
0.000371507
0.000370431
0.00036821
0.000364707
0.000360245
0.000355805
0.000351795
0.000348312
0.000345367
0.000342987
0.000342802
0.00034548
0.000348494
0.000351968
0.00035594
0.000360324
0.000364716
0.000368158
0.000370336
0.000371389
0.000371389
0.000370336
0.000368159
0.000364717
0.000360327
0.000355945
0.000351968
0.000348477
0.000345439
0.000342745
)
;

boundaryField
{
    defaultFaces
    {
        type            empty;
    }
}


// ************************************************************************* //
