/*--------------------------------*- C++ -*----------------------------------*\
  =========                 |
  \\      /  F ield         | OpenFOAM: The Open Source CFD Toolbox
   \\    /   O peration     | Website:  https://openfoam.org
    \\  /    A nd           | Version:  11
     \\/     M anipulation  |
\*---------------------------------------------------------------------------*/
FoamFile
{
    format      ascii;
    class       volScalarField;
    location    "4";
    object      nut;
}
// * * * * * * * * * * * * * * * * * * * * * * * * * * * * * * * * * * * * * //

dimensions      [0 2 -1 0 0 0 0];

internalField   nonuniform List<scalar> 
400
(
0.000485048
0.000322234
0.000240408
0.000198537
0.000172717
0.000154855
0.000142483
0.000134311
0.00013
0.000128069
0.000128071
0.000130006
0.000134322
0.000142503
0.000154894
0.000172785
0.000198638
0.000240523
0.000322286
0.000484983
0.000325825
0.000310888
0.000257692
0.000212275
0.000181079
0.000159901
0.000145625
0.000136705
0.000131948
0.000129836
0.000129838
0.000131954
0.000136716
0.000145647
0.000159943
0.000181152
0.000212373
0.000257778
0.000310902
0.000325763
0.000243542
0.000259978
0.0002466
0.000217395
0.000188228
0.000165368
0.000149371
0.000139603
0.000134353
0.000132027
0.000132029
0.00013436
0.000139615
0.000149394
0.000165412
0.000188297
0.000217476
0.000246654
0.000259973
0.000243492
0.000201238
0.000214889
0.000218888
0.000208786
0.000189684
0.000169456
0.000153153
0.000142823
0.000137166
0.000134644
0.000134646
0.000137172
0.000142836
0.000153175
0.000169496
0.000189741
0.000208842
0.000218918
0.000214878
0.000201204
0.000175499
0.000183677
0.000190265
0.000190761
0.000183051
0.000169691
0.000155792
0.000145881
0.000140162
0.000137558
0.00013756
0.000140169
0.000145892
0.000155812
0.000169724
0.000183093
0.000190797
0.000190281
0.000183668
0.000175476
0.000157863
0.000162629
0.000167656
0.00017112
0.000170538
0.000164784
0.000155778
0.000147868
0.000142819
0.00014041
0.000140412
0.000142825
0.000147879
0.000155794
0.000164808
0.000170565
0.000171143
0.000167665
0.000162623
0.000157847
0.000145768
0.000148622
0.000151956
0.000155214
0.000157194
0.000156433
0.00015257
0.000147836
0.000144305
0.000142488
0.000142489
0.000144309
0.000147844
0.000152582
0.000156448
0.000157212
0.000155229
0.000151962
0.000148616
0.000145755
0.00013859
0.00014046
0.000142747
0.000145281
0.000147584
0.000148788
0.00014809
0.000146086
0.00014421
0.000143146
0.000143147
0.000144214
0.000146092
0.000148098
0.000148798
0.000147596
0.000145292
0.00014275
0.000140453
0.000138577
0.000134378
0.000135769
0.000137503
0.000139533
0.000141667
0.000143462
0.000144272
0.000143966
0.000143311
0.000142859
0.00014286
0.000143314
0.00014397
0.000144277
0.000143469
0.000141676
0.00013954
0.000137504
0.00013576
0.000134363
0.000131841
0.000132975
0.000134404
0.000136123
0.00013806
0.000139988
0.000141461
0.000142098
0.000142216
0.000142182
0.000142183
0.000142217
0.0001421
0.000141465
0.000139992
0.000138066
0.000136129
0.000134403
0.000132965
0.000131826
0.000130311
0.000131302
0.000132558
0.000134091
0.000135879
0.000137802
0.00013955
0.000140672
0.000141232
0.000141453
0.000141453
0.000141233
0.000140674
0.000139553
0.000137806
0.000135884
0.000134096
0.000132556
0.000131292
0.000130295
0.000129406
0.000130318
0.000131475
0.000132898
0.000134586
0.000136472
0.000138322
0.000139677
0.00014047
0.000140831
0.000140831
0.000140471
0.000139678
0.000138324
0.000136474
0.00013459
0.000132901
0.000131473
0.000130308
0.00012939
0.000128897
0.000129766
0.000130866
0.000132224
0.000133848
0.000135695
0.000137572
0.000139027
0.000139932
0.000140362
0.000140362
0.000139932
0.000139027
0.000137573
0.000135696
0.000133851
0.000132226
0.000130863
0.000129755
0.000128881
0.000128643
0.000129488
0.000130556
0.000131875
0.000133457
0.000135269
0.000137139
0.000138624
0.000139572
0.000140032
0.000140032
0.000139572
0.000138625
0.000137139
0.000135271
0.000133459
0.000131877
0.000130552
0.000129476
0.000128625
0.00012857
0.000129403
0.000130454
0.000131751
0.000133306
0.000135089
0.000136934
0.00013841
0.00013936
0.000139824
0.000139824
0.00013936
0.00013841
0.000136934
0.00013509
0.000133308
0.000131752
0.000130449
0.000129389
0.000128549
0.000128584
0.000129413
0.000130456
0.000131742
0.00013328
0.000135038
0.000136852
0.000138303
0.000139238
0.000139695
0.000139695
0.000139238
0.000138303
0.000136853
0.00013504
0.000133283
0.000131743
0.00013045
0.000129396
0.000128559
0.000128625
0.000129455
0.000130498
0.000131782
0.000133309
0.000135043
0.000136824
0.000138245
0.000139159
0.000139605
0.000139605
0.000139159
0.000138245
0.000136825
0.000135046
0.000133312
0.000131783
0.000130491
0.000129433
0.000128593
0.000128653
0.000129493
0.00013055
0.000131838
0.000133357
0.000135068
0.000136815
0.000138206
0.000139099
0.000139535
0.000139535
0.000139099
0.000138206
0.000136816
0.00013507
0.000133361
0.00013184
0.000130541
0.000129468
0.000128614
0.000128633
0.000129513
0.000130601
0.000131899
0.000133409
0.000135097
0.000136814
0.000138178
0.000139052
0.000139478
0.000139478
0.000139052
0.000138178
0.000136814
0.0001351
0.000133413
0.000131901
0.000130593
0.000129486
0.000128592
0.000128536
0.000129536
0.000130662
0.000131963
0.00013346
0.000135127
0.000136816
0.000138157
0.000139015
0.000139433
0.000139433
0.000139015
0.000138157
0.000136817
0.00013513
0.000133464
0.000131964
0.000130653
0.000129511
0.0001285
)
;

boundaryField
{
    defaultFaces
    {
        type            empty;
    }
}


// ************************************************************************* //
