/*--------------------------------*- C++ -*----------------------------------*\
  =========                 |
  \\      /  F ield         | OpenFOAM: The Open Source CFD Toolbox
   \\    /   O peration     | Website:  https://openfoam.org
    \\  /    A nd           | Version:  11
     \\/     M anipulation  |
\*---------------------------------------------------------------------------*/
FoamFile
{
    format      ascii;
    class       volScalarField;
    location    "6.5";
    object      epsilon;
}
// * * * * * * * * * * * * * * * * * * * * * * * * * * * * * * * * * * * * * //

dimensions      [0 2 -3 0 0 0 0];

internalField   nonuniform List<scalar> 
400
(
0.00012521
8.31422e-05
6.20347e-05
5.12281e-05
4.45573e-05
3.99354e-05
3.67282e-05
3.46088e-05
3.349e-05
3.29892e-05
3.29901e-05
3.3493e-05
3.46145e-05
3.67378e-05
3.99507e-05
4.45796e-05
5.12583e-05
6.20686e-05
8.31661e-05
0.000125219
8.40613e-05
8.01921e-05
6.64578e-05
5.47442e-05
4.66985e-05
4.12292e-05
3.75351e-05
3.52242e-05
3.39913e-05
3.34437e-05
3.34447e-05
3.39944e-05
3.52302e-05
3.75452e-05
4.12453e-05
4.67218e-05
5.47737e-05
6.64867e-05
8.02092e-05
8.40655e-05
6.28199e-05
6.70364e-05
6.35801e-05
5.60472e-05
4.85272e-05
4.26294e-05
3.84952e-05
3.59673e-05
3.46079e-05
3.40056e-05
3.40066e-05
3.46112e-05
3.59735e-05
3.85057e-05
4.26457e-05
4.85495e-05
5.60726e-05
6.36016e-05
6.7048e-05
6.28236e-05
5.1873e-05
5.53834e-05
5.64133e-05
5.38108e-05
4.88877e-05
4.36704e-05
3.94597e-05
3.67887e-05
3.53245e-05
3.46718e-05
3.46729e-05
3.53279e-05
3.6795e-05
3.94701e-05
4.36859e-05
4.89071e-05
5.38304e-05
5.64284e-05
5.53917e-05
5.1877e-05
4.51775e-05
4.72921e-05
4.89982e-05
4.91349e-05
4.71537e-05
4.37098e-05
4.01208e-05
3.75587e-05
3.60793e-05
3.54054e-05
3.54064e-05
3.60826e-05
3.75648e-05
4.01305e-05
4.37231e-05
4.71687e-05
4.91488e-05
4.90084e-05
4.72982e-05
4.5181e-05
4.05475e-05
4.17923e-05
4.31055e-05
4.40157e-05
4.38797e-05
4.24036e-05
4.00804e-05
3.8036e-05
3.67295e-05
3.61058e-05
3.61067e-05
3.67325e-05
3.80415e-05
4.00885e-05
4.24137e-05
4.38902e-05
4.40249e-05
4.31121e-05
4.17962e-05
4.05498e-05
3.73219e-05
3.80772e-05
3.89597e-05
3.98233e-05
4.03559e-05
4.01754e-05
3.91858e-05
3.79641e-05
3.70501e-05
3.65792e-05
3.658e-05
3.70526e-05
3.79683e-05
3.91917e-05
4.01821e-05
4.03625e-05
3.98288e-05
3.89634e-05
3.80791e-05
3.73226e-05
3.53574e-05
3.58586e-05
3.6471e-05
3.71495e-05
3.77686e-05
3.81004e-05
3.79332e-05
3.74197e-05
3.69347e-05
3.66584e-05
3.6659e-05
3.69365e-05
3.74227e-05
3.79371e-05
3.81046e-05
3.77725e-05
3.71527e-05
3.64727e-05
3.5859e-05
3.53569e-05
3.41668e-05
3.45415e-05
3.50084e-05
3.55544e-05
3.61287e-05
3.66135e-05
3.68378e-05
3.6765e-05
3.65965e-05
3.64791e-05
3.64795e-05
3.65978e-05
3.6767e-05
3.68403e-05
3.66161e-05
3.6131e-05
3.55561e-05
3.5009e-05
3.45409e-05
3.41654e-05
3.34186e-05
3.37232e-05
3.41071e-05
3.45683e-05
3.50872e-05
3.56033e-05
3.5998e-05
3.61691e-05
3.62011e-05
3.61923e-05
3.61925e-05
3.62019e-05
3.61704e-05
3.59995e-05
3.56049e-05
3.50885e-05
3.45692e-05
3.41069e-05
3.3722e-05
3.34167e-05
3.29419e-05
3.32058e-05
3.35401e-05
3.3948e-05
3.44228e-05
3.49327e-05
3.53949e-05
3.56902e-05
3.58366e-05
3.58936e-05
3.58938e-05
3.58371e-05
3.5691e-05
3.53958e-05
3.49336e-05
3.44235e-05
3.39482e-05
3.35395e-05
3.32042e-05
3.29397e-05
3.26397e-05
3.28793e-05
3.31835e-05
3.35574e-05
3.40007e-05
3.44953e-05
3.49794e-05
3.53328e-05
3.55389e-05
3.56322e-05
3.56323e-05
3.55393e-05
3.53333e-05
3.498e-05
3.44958e-05
3.4001e-05
3.35573e-05
3.31825e-05
3.28774e-05
3.26372e-05
3.2453e-05
3.26781e-05
3.29638e-05
3.33163e-05
3.37377e-05
3.42168e-05
3.47034e-05
3.50803e-05
3.53143e-05
3.54256e-05
3.54257e-05
3.53145e-05
3.50806e-05
3.47037e-05
3.4217e-05
3.37376e-05
3.33158e-05
3.29625e-05
3.2676e-05
3.24502e-05
3.23454e-05
3.2562e-05
3.28363e-05
3.3175e-05
3.35813e-05
3.40469e-05
3.45277e-05
3.49102e-05
3.51544e-05
3.52729e-05
3.5273e-05
3.51546e-05
3.49104e-05
3.45279e-05
3.40469e-05
3.3581e-05
3.31742e-05
3.28347e-05
3.25595e-05
3.23423e-05
3.22998e-05
3.25119e-05
3.27799e-05
3.31106e-05
3.35072e-05
3.39623e-05
3.44341e-05
3.48126e-05
3.50567e-05
3.5176e-05
3.51761e-05
3.50568e-05
3.48127e-05
3.44342e-05
3.39622e-05
3.35068e-05
3.31096e-05
3.27779e-05
3.25088e-05
3.2296e-05
3.22882e-05
3.24985e-05
3.27636e-05
3.30905e-05
3.34815e-05
3.39286e-05
3.43909e-05
3.47621e-05
3.50019e-05
3.51194e-05
3.51194e-05
3.5002e-05
3.47622e-05
3.4391e-05
3.39284e-05
3.34809e-05
3.30892e-05
3.27612e-05
3.24947e-05
3.22835e-05
3.22894e-05
3.24996e-05
3.27647e-05
3.30907e-05
3.34785e-05
3.3919e-05
3.43721e-05
3.47351e-05
3.49695e-05
3.50843e-05
3.50844e-05
3.49696e-05
3.47352e-05
3.43722e-05
3.39189e-05
3.3478e-05
3.30893e-05
3.27619e-05
3.24951e-05
3.22837e-05
3.22913e-05
3.25041e-05
3.27726e-05
3.31001e-05
3.34857e-05
3.392e-05
3.43645e-05
3.47197e-05
3.49487e-05
3.50608e-05
3.50608e-05
3.49487e-05
3.47198e-05
3.43646e-05
3.39199e-05
3.34852e-05
3.30987e-05
3.27697e-05
3.24991e-05
3.22846e-05
3.22848e-05
3.25076e-05
3.2784e-05
3.31139e-05
3.34971e-05
3.39255e-05
3.4362e-05
3.47103e-05
3.49345e-05
3.50441e-05
3.50442e-05
3.49346e-05
3.47104e-05
3.43621e-05
3.39254e-05
3.34966e-05
3.31126e-05
3.27811e-05
3.25024e-05
3.22779e-05
3.22609e-05
3.25137e-05
3.27992e-05
3.31296e-05
3.35096e-05
3.39325e-05
3.43621e-05
3.47046e-05
3.49246e-05
3.50321e-05
3.50321e-05
3.49247e-05
3.47047e-05
3.43622e-05
3.39324e-05
3.3509e-05
3.31282e-05
3.27961e-05
3.25087e-05
3.22547e-05
)
;

boundaryField
{
    defaultFaces
    {
        type            empty;
    }
}


// ************************************************************************* //
