/*--------------------------------*- C++ -*----------------------------------*\
  =========                 |
  \\      /  F ield         | OpenFOAM: The Open Source CFD Toolbox
   \\    /   O peration     | Website:  https://openfoam.org
    \\  /    A nd           | Version:  11
     \\/     M anipulation  |
\*---------------------------------------------------------------------------*/
FoamFile
{
    format      ascii;
    class       volScalarField;
    location    "6.5";
    object      k;
}
// * * * * * * * * * * * * * * * * * * * * * * * * * * * * * * * * * * * * * //

dimensions      [0 2 -2 0 0 0 0];

internalField   nonuniform List<scalar> 
400
(
0.000815745
0.000541854
0.000404393
0.000334094
0.000290738
0.000260705
0.000239853
0.000226047
0.000218747
0.000215474
0.000215479
0.000218765
0.000226079
0.000239904
0.000260784
0.000290848
0.000334237
0.000404554
0.000541985
0.000815833
0.000547814
0.000522693
0.000433307
0.000357071
0.000304729
0.000269159
0.000245125
0.000230067
0.000222018
0.000218438
0.000218444
0.000222037
0.0002301
0.000245179
0.000269241
0.000304844
0.000357213
0.000433451
0.000522794
0.000547863
0.000409432
0.000437031
0.000414596
0.000365598
0.000316673
0.000278301
0.000251391
0.000234912
0.000226036
0.000222096
0.000222102
0.000226055
0.000234948
0.000251447
0.000278385
0.000316785
0.000365725
0.000414709
0.000437104
0.000409468
0.000338147
0.000361122
0.000367916
0.000351033
0.000319026
0.000285085
0.00025767
0.000240255
0.000230691
0.000226421
0.000226427
0.000230711
0.000240291
0.000257727
0.000285166
0.000319126
0.000351136
0.000367999
0.000361174
0.000338178
0.000294526
0.000308379
0.000319573
0.000320536
0.000307693
0.000285305
0.000261941
0.000245233
0.000235567
0.000231157
0.000231164
0.000235587
0.000245269
0.000261995
0.000285377
0.000307773
0.000320612
0.000319633
0.000308418
0.000294553
0.000264283
0.000272453
0.000281079
0.000287081
0.000286261
0.000276695
0.000261581
0.000248249
0.00023971
0.000235627
0.000235633
0.000239729
0.000248281
0.000261627
0.000276752
0.00028632
0.000287134
0.00028112
0.00027248
0.000264302
0.00024308
0.000248053
0.000253863
0.000259558
0.000263097
0.000261976
0.000255558
0.000247593
0.000241616
0.000238532
0.000238537
0.000241632
0.000247618
0.000255593
0.000262016
0.000263136
0.000259592
0.000253888
0.000248068
0.00024309
0.000230004
0.000233312
0.000237354
0.000241836
0.000245935
0.000248155
0.000247103
0.000243762
0.000240589
0.000238777
0.000238781
0.000240601
0.000243781
0.000247127
0.000248182
0.00024596
0.000241857
0.000237367
0.000233318
0.000230005
0.00022194
0.000224415
0.000227499
0.000231107
0.000234907
0.000238121
0.000239622
0.000239162
0.000238061
0.00023729
0.000237292
0.000238069
0.000239175
0.000239639
0.000238138
0.000234922
0.000231119
0.000227506
0.000224415
0.000221936
0.000216759
0.000218768
0.000221301
0.000224345
0.000227771
0.000231181
0.000233791
0.000234924
0.000235136
0.000235078
0.000235079
0.000235142
0.000234933
0.000233801
0.000231191
0.00022778
0.000224351
0.000221302
0.000218764
0.000216751
0.00021337
0.000215105
0.000217303
0.000219986
0.000223111
0.000226469
0.000229513
0.000231457
0.000232418
0.000232792
0.000232793
0.000232422
0.000231462
0.000229519
0.000226475
0.000223116
0.000219988
0.000217301
0.000215097
0.00021336
0.000211152
0.00021272
0.000214712
0.000217162
0.000220069
0.000223314
0.000226492
0.000228812
0.000230164
0.000230776
0.000230777
0.000230167
0.000228815
0.000226496
0.000223317
0.000220071
0.000217162
0.000214707
0.000212711
0.000211139
0.000209729
0.000211196
0.000213058
0.000215358
0.00021811
0.000221242
0.000224428
0.000226897
0.000228431
0.00022916
0.000229161
0.000228432
0.000226899
0.00022443
0.000221243
0.00021811
0.000215355
0.000213051
0.000211184
0.000209714
0.000208865
0.00021027
0.000212052
0.000214254
0.000216898
0.000219933
0.000223073
0.000225574
0.000227174
0.00022795
0.000227951
0.000227174
0.000225575
0.000223073
0.000219933
0.000216896
0.000214249
0.000212043
0.000210256
0.000208848
0.000208459
0.000209832
0.000211568
0.000213713
0.000216289
0.000219249
0.000222325
0.000224798
0.000226396
0.000227178
0.000227178
0.000226396
0.000224799
0.000222325
0.000219248
0.000216286
0.000213707
0.000211556
0.000209815
0.000208438
0.00020832
0.00020968
0.000211396
0.000213514
0.000216051
0.000218957
0.000221969
0.000224392
0.000225961
0.000226731
0.000226731
0.000225962
0.000224392
0.000221968
0.000218955
0.000216047
0.000213506
0.000211382
0.000209659
0.000208295
0.000208293
0.000209652
0.000211367
0.000213478
0.000215994
0.000218856
0.000221807
0.000224178
0.000225711
0.000226464
0.000226464
0.000225712
0.000224178
0.000221807
0.000218854
0.00021599
0.00021347
0.000211351
0.000209628
0.000208264
0.000208288
0.000209663
0.0002114
0.000213522
0.000216022
0.000218844
0.000221739
0.000224058
0.000225557
0.000226292
0.000226292
0.000225557
0.000224058
0.000221738
0.000218843
0.000216018
0.000213513
0.000211384
0.000209637
0.000208254
0.00020824
0.00020968
0.000211467
0.000213604
0.000216088
0.000218872
0.000221715
0.00022399
0.000225457
0.000226176
0.000226177
0.000225458
0.00022399
0.000221715
0.00021887
0.000216084
0.000213595
0.000211451
0.000209652
0.000208205
0.000208086
0.000209718
0.000211563
0.000213703
0.000216166
0.000218915
0.000221713
0.00022395
0.000225391
0.000226096
0.000226096
0.000225391
0.000223951
0.000221712
0.000218913
0.000216162
0.000213694
0.000211546
0.000209691
0.000208053
)
;

boundaryField
{
    defaultFaces
    {
        type            empty;
    }
}


// ************************************************************************* //
