/*--------------------------------*- C++ -*----------------------------------*\
  =========                 |
  \\      /  F ield         | OpenFOAM: The Open Source CFD Toolbox
   \\    /   O peration     | Website:  https://openfoam.org
    \\  /    A nd           | Version:  11
     \\/     M anipulation  |
\*---------------------------------------------------------------------------*/
FoamFile
{
    format      ascii;
    class       volScalarField;
    location    "6.5";
    object      nut;
}
// * * * * * * * * * * * * * * * * * * * * * * * * * * * * * * * * * * * * * //

dimensions      [0 2 -1 0 0 0 0];

internalField   nonuniform List<scalar> 
400
(
0.000478312
0.000317822
0.000237255
0.000196097
0.000170737
0.000153174
0.000140972
0.000132878
0.000128591
0.000126666
0.000126669
0.000128601
0.000132894
0.000140995
0.000153207
0.00017078
0.00019615
0.000237315
0.000317885
0.000478382
0.000321302
0.000306623
0.000254266
0.000209611
0.000178965
0.000158145
0.000144072
0.000135241
0.000130513
0.000128406
0.000128409
0.000130522
0.000135258
0.000144097
0.00015818
0.00017901
0.000209665
0.000254324
0.000306676
0.000321343
0.000240165
0.000256423
0.000243317
0.000214633
0.000185986
0.000163517
0.000147752
0.000138085
0.000132868
0.000130549
0.000130552
0.000132878
0.000138103
0.000147779
0.000163553
0.000186032
0.000214685
0.000243367
0.000256464
0.000240193
0.000198386
0.000211919
0.000215953
0.000206096
0.000187368
0.000167495
0.000151432
0.000141213
0.00013559
0.000133076
0.000133079
0.0001356
0.000141231
0.000151459
0.000167531
0.000187411
0.000206141
0.000215993
0.000211949
0.000198408
0.00017281
0.000180977
0.000187587
0.000188194
0.000180701
0.000167603
0.000153915
0.000144109
0.000138425
0.000135828
0.000135831
0.000138436
0.000144127
0.000153941
0.000167636
0.000180738
0.00018823
0.000187618
0.000181
0.000172827
0.000155031
0.000159857
0.000164955
0.000168517
0.000168075
0.000162496
0.000153647
0.000145822
0.000140799
0.000138393
0.000138397
0.000140809
0.000145839
0.00015367
0.000162524
0.000168104
0.000168544
0.000164978
0.000159873
0.000155043
0.000142488
0.000145434
0.000148877
0.000152256
0.000154371
0.000153747
0.00015
0.000145327
0.00014181
0.000139991
0.000139994
0.000141819
0.000145341
0.000150019
0.000153768
0.000154392
0.000152275
0.000148892
0.000145444
0.000142496
0.000134658
0.000136623
0.000139023
0.000141688
0.000144129
0.000145466
0.00014487
0.000142913
0.000141046
0.000139976
0.000139979
0.000141052
0.000142924
0.000144884
0.000145481
0.000144143
0.0001417
0.000139033
0.000136628
0.000134662
0.00012975
0.000131221
0.000133055
0.0001352
0.000137461
0.000139379
0.000140283
0.00014002
0.000139373
0.000138917
0.000138919
0.000139378
0.000140028
0.000140292
0.000139389
0.00013747
0.000135208
0.00013306
0.000131224
0.000129751
0.000126535
0.000127727
0.00012923
0.000131038
0.000133073
0.0001351
0.000136653
0.000137329
0.000137455
0.00013742
0.000137421
0.000137458
0.000137334
0.000136659
0.000135106
0.000133079
0.000131042
0.000129232
0.000127727
0.000126533
0.000124383
0.000125409
0.000126709
0.000128298
0.000130149
0.000132138
0.000133942
0.000135093
0.000135662
0.000135882
0.000135883
0.000135664
0.000135096
0.000133946
0.000132142
0.000130152
0.000128299
0.000126709
0.000125406
0.000124379
0.000122938
0.000123862
0.000125035
0.00012648
0.000128195
0.000130111
0.000131988
0.000133359
0.000134157
0.000134518
0.000134519
0.000134159
0.000133361
0.00013199
0.000130113
0.000128196
0.00012648
0.000125033
0.000123858
0.000122933
0.000121984
0.000122844
0.000123937
0.000125287
0.000126905
0.000128748
0.000130624
0.00013208
0.000132985
0.000133415
0.000133415
0.000132985
0.000132081
0.000130625
0.000128748
0.000126905
0.000125286
0.000123934
0.000122839
0.000121978
0.000121383
0.000122204
0.000123246
0.000124534
0.000126083
0.000127864
0.000129708
0.000131181
0.000132123
0.000132581
0.000132581
0.000132123
0.000131181
0.000129708
0.000127863
0.000126082
0.000124531
0.000123241
0.000122198
0.000121375
0.000121083
0.000121883
0.000122895
0.000124147
0.000125653
0.000127386
0.000129191
0.000130645
0.000131585
0.000132046
0.000132046
0.000131585
0.000130645
0.00012919
0.000127385
0.000125651
0.000124144
0.000122889
0.000121875
0.000121073
0.000120966
0.000121757
0.000122756
0.000123991
0.000125473
0.000127173
0.000128938
0.000130363
0.000131287
0.00013174
0.00013174
0.000131286
0.000130362
0.000128938
0.000127171
0.00012547
0.000123987
0.000122749
0.000121747
0.000120954
0.00012093
0.00012172
0.000122719
0.000123949
0.000125418
0.000127092
0.000128821
0.000130214
0.000131117
0.000131561
0.000131561
0.000131117
0.000130214
0.000128821
0.00012709
0.000125415
0.000123945
0.000122711
0.000121709
0.000120917
0.000120917
0.000121716
0.000122728
0.000123964
0.000125424
0.000127074
0.000128771
0.000130134
0.000131016
0.00013145
0.00013145
0.000131016
0.000130133
0.00012877
0.000127072
0.000125421
0.000123959
0.00012272
0.000121705
0.000120902
0.000120885
0.000121722
0.000122763
0.000124008
0.000125458
0.000127086
0.000128752
0.000130089
0.000130954
0.000131378
0.000131378
0.000130953
0.000130089
0.000128751
0.000127084
0.000125455
0.000124003
0.000122755
0.00012171
0.00012087
0.000120795
0.000121743
0.000122817
0.000124064
0.000125502
0.000127109
0.000128749
0.000130065
0.000130913
0.00013133
0.00013133
0.000130913
0.000130064
0.000128748
0.000127107
0.000125499
0.000124059
0.000122809
0.000121731
0.000120781
)
;

boundaryField
{
    defaultFaces
    {
        type            empty;
    }
}


// ************************************************************************* //
