/*--------------------------------*- C++ -*----------------------------------*\
  =========                 |
  \\      /  F ield         | OpenFOAM: The Open Source CFD Toolbox
   \\    /   O peration     | Website:  https://openfoam.org
    \\  /    A nd           | Version:  11
     \\/     M anipulation  |
\*---------------------------------------------------------------------------*/
FoamFile
{
    format      ascii;
    class       volScalarField;
    location    "2.5";
    object      epsilon;
}
// * * * * * * * * * * * * * * * * * * * * * * * * * * * * * * * * * * * * * //

dimensions      [0 2 -3 0 0 0 0];

internalField   nonuniform List<scalar> 
400
(
0.000674432
0.000447488
0.000333743
0.000275729
0.000240282
0.000216308
0.000200523
0.000190823
0.000186196
0.000184275
0.000184276
0.000186201
0.000190834
0.000200544
0.000216348
0.00024035
0.000275832
0.000333854
0.000447535
0.000674387
0.000452589
0.000431725
0.000357676
0.000294681
0.000251751
0.000223169
0.000204766
0.000194099
0.000188932
0.000186808
0.00018681
0.000188938
0.000194111
0.000204789
0.000223212
0.000251822
0.000294776
0.000357758
0.000431748
0.000452559
0.000338387
0.000361012
0.000342339
0.000301812
0.000261626
0.000230664
0.000209872
0.000198087
0.000192313
0.000189945
0.000189946
0.000192318
0.000198099
0.000209896
0.000230708
0.000261691
0.000301886
0.000342392
0.000361027
0.00033838
0.000280039
0.000298711
0.000304107
0.000290062
0.000263769
0.000236371
0.000215105
0.000202567
0.000196283
0.000193686
0.000193688
0.000196289
0.000202579
0.000215129
0.000236411
0.000263821
0.000290112
0.00030414
0.000298726
0.000280045
0.000245078
0.00025611
0.000264998
0.000265565
0.000254979
0.000236988
0.000218946
0.00020694
0.000200576
0.000197882
0.000197884
0.000200582
0.000206952
0.000218968
0.000237021
0.000255016
0.000265597
0.00026502
0.000256123
0.000245086
0.000221924
0.000228197
0.000234841
0.000239402
0.000238558
0.000230949
0.000219499
0.000210104
0.00020457
0.000202104
0.000202106
0.000204575
0.000210114
0.000219515
0.000230971
0.00023858
0.000239421
0.000234854
0.000228205
0.000221929
0.000207158
0.000210786
0.000215055
0.000219244
0.000221803
0.000220896
0.000216281
0.000210971
0.000207294
0.000205515
0.000205516
0.000207297
0.000210978
0.000216292
0.000220909
0.000221815
0.000219253
0.000215061
0.000210789
0.000207159
0.000199557
0.000201875
0.000204731
0.000207915
0.000210845
0.000212474
0.000211912
0.000209971
0.000208233
0.000207292
0.000207293
0.000208235
0.000209975
0.000211918
0.00021248
0.000210851
0.000207919
0.000204732
0.000201875
0.000199555
0.000195858
0.000197594
0.000199765
0.000202313
0.000205015
0.000207357
0.00020861
0.000208633
0.000208233
0.000207934
0.000207934
0.000208234
0.000208635
0.000208613
0.00020736
0.000205017
0.000202314
0.000199765
0.000197592
0.000195855
0.000194101
0.000195564
0.000197405
0.000199609
0.000202089
0.000204579
0.000206566
0.000207584
0.000207958
0.00020806
0.00020806
0.000207959
0.000207585
0.000206567
0.000204581
0.00020209
0.000199609
0.000197403
0.000195562
0.000194097
0.000193316
0.000194653
0.000196335
0.000198365
0.000200704
0.000203194
0.00020545
0.000206922
0.00020769
0.000208009
0.000208009
0.00020769
0.000206923
0.000205451
0.000203195
0.000200704
0.000198365
0.000196333
0.00019465
0.000193312
0.000193012
0.000194292
0.0001959
0.000197844
0.000200103
0.000202563
0.000204903
0.00020656
0.000207505
0.000207927
0.000207927
0.000207506
0.00020656
0.000204904
0.000202563
0.000200103
0.000197843
0.000195897
0.000194289
0.000193008
0.000192948
0.000194203
0.000195774
0.000197675
0.000199888
0.000202316
0.000204667
0.000206382
0.000207393
0.000207856
0.000207856
0.000207394
0.000206383
0.000204667
0.000202316
0.000199888
0.000197674
0.000195772
0.000194199
0.000192943
0.000193006
0.000194251
0.000195804
0.00019768
0.000199863
0.000202259
0.000204588
0.000206301
0.000207321
0.000207791
0.000207791
0.000207321
0.000206302
0.000204588
0.000202259
0.000199863
0.000197678
0.0001958
0.000194246
0.000193
0.000193123
0.000194364
0.000195908
0.00019777
0.000199932
0.000202296
0.000204584
0.000206263
0.00020726
0.00020772
0.00020772
0.000207261
0.000206263
0.000204584
0.000202296
0.000199931
0.000197768
0.000195904
0.000194358
0.000193115
0.000193242
0.000194483
0.000196025
0.000197881
0.000200027
0.000202361
0.000204602
0.000206234
0.000207198
0.000207641
0.000207641
0.000207199
0.000206235
0.000204603
0.000202361
0.000200027
0.000197878
0.000196019
0.000194474
0.000193231
0.000193336
0.000194582
0.000196131
0.000197991
0.000200128
0.00020243
0.000204622
0.000206205
0.000207134
0.000207559
0.000207559
0.000207135
0.000206206
0.000204623
0.000202431
0.000200127
0.000197988
0.000196124
0.000194571
0.000193321
0.000193385
0.00019465
0.000196223
0.000198098
0.000200226
0.000202496
0.000204638
0.000206175
0.000207072
0.00020748
0.00020748
0.000207072
0.000206176
0.000204639
0.000202497
0.000200226
0.000198095
0.000196216
0.000194637
0.000193367
0.000193364
0.000194691
0.000196313
0.000198203
0.000200319
0.000202555
0.00020465
0.000206147
0.000207014
0.000207408
0.000207408
0.000207015
0.000206148
0.000204651
0.000202556
0.000200318
0.000198201
0.000196306
0.000194678
0.000193347
0.00019323
0.000194736
0.000196412
0.000198305
0.000200401
0.000202605
0.000204659
0.000206121
0.000206964
0.000207345
0.000207346
0.000206965
0.000206122
0.00020466
0.000202605
0.000200401
0.000198302
0.000196404
0.000194723
0.000193214
)
;

boundaryField
{
    defaultFaces
    {
        type            empty;
    }
}


// ************************************************************************* //
