/*--------------------------------*- C++ -*----------------------------------*\
  =========                 |
  \\      /  F ield         | OpenFOAM: The Open Source CFD Toolbox
   \\    /   O peration     | Website:  https://openfoam.org
    \\  /    A nd           | Version:  11
     \\/     M anipulation  |
\*---------------------------------------------------------------------------*/
FoamFile
{
    format      ascii;
    class       volScalarField;
    location    "2.5";
    object      k;
}
// * * * * * * * * * * * * * * * * * * * * * * * * * * * * * * * * * * * * * //

dimensions      [0 2 -2 0 0 0 0];

internalField   nonuniform List<scalar> 
400
(
0.00190889
0.00126739
0.000945564
0.000781311
0.000680661
0.000612059
0.000566105
0.000537181
0.000522902
0.000516813
0.000516817
0.000522916
0.000537211
0.000566161
0.000612158
0.000680822
0.000781545
0.000945819
0.00126753
0.00190887
0.00128178
0.00122283
0.00101345
0.000835129
0.000713291
0.00063163
0.000578232
0.000546503
0.000530631
0.00052393
0.000523934
0.000530646
0.000546534
0.000578292
0.000631736
0.000713459
0.00083535
0.00101365
0.00122292
0.00128175
0.000958585
0.00102282
0.000970067
0.000855364
0.000741345
0.000652972
0.000592797
0.000557847
0.000540194
0.000532762
0.000532767
0.00054021
0.000557881
0.00059286
0.00065308
0.000741503
0.000855545
0.000970208
0.00102288
0.000958593
0.000793301
0.000846378
0.000861772
0.000822023
0.00074738
0.000669163
0.000607682
0.000570578
0.000551438
0.000543328
0.000543333
0.000551454
0.000570612
0.000607745
0.000669264
0.000747512
0.000822155
0.000861868
0.00084643
0.000793329
0.000693929
0.00072538
0.000750711
0.000752371
0.000722249
0.000670759
0.000618504
0.000582957
0.0005636
0.000555208
0.000555212
0.000563616
0.00058299
0.000618562
0.000670843
0.000722346
0.000752459
0.000750775
0.000725422
0.000693958
0.000627545
0.000645519
0.000664532
0.000677571
0.000675124
0.000653166
0.000619762
0.000591777
0.000574874
0.000567175
0.00056718
0.000574889
0.000591806
0.000619808
0.000653226
0.000675187
0.000677625
0.000664572
0.000645546
0.000627564
0.000584406
0.000594866
0.000607156
0.000619189
0.000626488
0.000623694
0.000609928
0.000593825
0.000582421
0.000576797
0.0005768
0.000582432
0.000593845
0.000609958
0.00062373
0.000626523
0.000619218
0.000607176
0.000594878
0.000584412
0.000561357
0.000568065
0.000576316
0.000585501
0.000593909
0.000598464
0.000596488
0.000590316
0.000584733
0.000581668
0.000581671
0.00058474
0.000590328
0.000596506
0.000598483
0.000593927
0.000585514
0.000576322
0.000568066
0.000561354
0.000549578
0.00055458
0.000560839
0.000568181
0.000575953
0.000582631
0.00058605
0.000585788
0.000584305
0.000583236
0.000583237
0.000584309
0.000585795
0.000586059
0.000582641
0.000575961
0.000568185
0.00056084
0.000554576
0.000549571
0.000543621
0.000547803
0.000553072
0.000559395
0.000566517
0.000573667
0.000579333
0.000582154
0.000583108
0.000583321
0.000583321
0.00058311
0.000582158
0.000579338
0.000573672
0.00056652
0.000559395
0.000553069
0.000547797
0.000543612
0.000540735
0.000544523
0.000549302
0.000555091
0.000561789
0.000568956
0.000575489
0.000579771
0.000582009
0.000582938
0.000582939
0.000582011
0.000579773
0.000575492
0.000568958
0.00056179
0.00055509
0.000549297
0.000544515
0.000540724
0.000539467
0.000543071
0.00054761
0.000553127
0.000559578
0.000566665
0.000573491
0.0005784
0.000581244
0.000582528
0.000582528
0.000581245
0.000578402
0.000573492
0.000566666
0.000559578
0.000553125
0.000547604
0.000543061
0.000539456
0.000539052
0.000542572
0.000546994
0.000552371
0.000558679
0.000565675
0.000572557
0.000577688
0.000580774
0.000582208
0.000582208
0.000580775
0.000577689
0.000572559
0.000565675
0.000558678
0.000552368
0.000546987
0.000542561
0.000539038
0.000539093
0.000542577
0.00054694
0.00055224
0.000558456
0.00056536
0.000572192
0.000577344
0.000580482
0.000581955
0.000581956
0.000580483
0.000577345
0.000572193
0.00056536
0.000558453
0.000552234
0.00054693
0.000542563
0.000539077
0.000539367
0.000542839
0.000547173
0.00055243
0.000558582
0.000565395
0.000572119
0.000577183
0.00058027
0.000581721
0.000581721
0.000580271
0.000577185
0.00057212
0.000565395
0.000558579
0.000552423
0.00054716
0.000542821
0.000539346
0.000539676
0.000543148
0.000547474
0.000552714
0.000558823
0.000565551
0.000572145
0.000577083
0.00058008
0.000581485
0.000581485
0.000580081
0.000577084
0.000572147
0.000565551
0.000558821
0.000552706
0.000547458
0.000543124
0.000539647
0.000539928
0.000543414
0.00054776
0.00055301
0.000559093
0.000565736
0.000572191
0.000576994
0.000579894
0.000581249
0.00058125
0.000579896
0.000576996
0.000572193
0.000565737
0.000559091
0.000553002
0.000547742
0.000543384
0.00053989
0.000540062
0.0005436
0.000548014
0.000553304
0.000559364
0.000565916
0.000572234
0.000576907
0.000579717
0.000581025
0.000581025
0.000579718
0.00057691
0.000572236
0.000565917
0.000559362
0.000553297
0.000547996
0.000543565
0.000540016
0.000540002
0.000543712
0.000548263
0.000553597
0.00055962
0.000566078
0.000572266
0.000576826
0.000579555
0.000580822
0.000580823
0.000579556
0.000576828
0.000572268
0.000566079
0.000559619
0.00055359
0.000548243
0.000543677
0.000539957
0.000539628
0.000543837
0.000548539
0.000553881
0.000559851
0.000566217
0.000572289
0.000576754
0.000579414
0.000580647
0.000580647
0.000579416
0.000576756
0.000572292
0.000566218
0.000559849
0.000553872
0.000548518
0.000543803
0.000539587
)
;

boundaryField
{
    defaultFaces
    {
        type            empty;
    }
}


// ************************************************************************* //
