/*--------------------------------*- C++ -*----------------------------------*\
  =========                 |
  \\      /  F ield         | OpenFOAM: The Open Source CFD Toolbox
   \\    /   O peration     | Website:  https://openfoam.org
    \\  /    A nd           | Version:  11
     \\/     M anipulation  |
\*---------------------------------------------------------------------------*/
FoamFile
{
    format      ascii;
    class       volScalarField;
    location    "2.5";
    object      nut;
}
// * * * * * * * * * * * * * * * * * * * * * * * * * * * * * * * * * * * * * //

dimensions      [0 2 -1 0 0 0 0];

internalField   nonuniform List<scalar> 
400
(
0.00048626
0.00032306
0.000241108
0.000199254
0.000173533
0.000155868
0.000143838
0.000136098
0.000132164
0.00013045
0.000130451
0.000132167
0.000136106
0.000143851
0.000155889
0.000173566
0.000199299
0.000241158
0.000323098
0.000486281
0.00032671
0.000311721
0.000258438
0.000213008
0.000181888
0.000160892
0.000146956
0.000138485
0.000134129
0.000132249
0.00013225
0.000134133
0.000138493
0.00014697
0.000160915
0.000181923
0.000213053
0.000258482
0.000311749
0.000326721
0.000244394
0.000260806
0.000247394
0.000218177
0.000189061
0.000166361
0.000150695
0.000141389
0.000136563
0.000134488
0.000134489
0.000136567
0.000141398
0.00015071
0.000166385
0.000189094
0.000218215
0.000247428
0.000260827
0.000244403
0.000202255
0.000215834
0.000219787
0.000209662
0.000190591
0.000170495
0.000154506
0.000144645
0.000139429
0.000137173
0.000137174
0.000139433
0.000144654
0.00015452
0.000170518
0.00019062
0.000209693
0.000219811
0.00021585
0.000202265
0.000176835
0.000184904
0.000191401
0.000191838
0.000184124
0.000170863
0.00015725
0.000147799
0.000142529
0.000140199
0.000140201
0.000142534
0.000147807
0.000157264
0.000170883
0.000184147
0.00019186
0.000191418
0.000184916
0.000176844
0.000159709
0.000164343
0.000169239
0.000172593
0.000171956
0.000166255
0.000157493
0.000150011
0.000145393
0.000143252
0.000143253
0.000145397
0.000150019
0.000157504
0.00016627
0.000171972
0.000172608
0.00016925
0.000164351
0.000159715
0.000148378
0.000151091
0.000154275
0.000157385
0.000159258
0.000158488
0.000154804
0.00015043
0.000147275
0.000145695
0.000145696
0.000147278
0.000150436
0.000154812
0.000158498
0.000159267
0.000157393
0.00015428
0.000151095
0.00014838
0.00014212
0.000143865
0.000146009
0.000148392
0.000150563
0.000151709
0.000151109
0.000149366
0.000147777
0.000146896
0.000146897
0.000147779
0.000149369
0.000151114
0.000151715
0.000150568
0.000148396
0.000146012
0.000143866
0.00014212
0.00013879
0.000140087
0.00014171
0.000143613
0.000145623
0.000147337
0.000148175
0.000148027
0.000147561
0.000147233
0.000147234
0.000147562
0.000148029
0.000148178
0.00014734
0.000145626
0.000143614
0.00014171
0.000140086
0.000138789
0.000137027
0.000138103
0.00013946
0.000141091
0.000142931
0.000144777
0.000146231
0.000146935
0.000147152
0.000147187
0.000147187
0.000147152
0.000146936
0.000146233
0.000144779
0.000142932
0.000141091
0.000139459
0.000138101
0.000137025
0.000136127
0.000137093
0.000138314
0.000139799
0.000141525
0.00014338
0.000145081
0.000146201
0.000146787
0.00014703
0.00014703
0.000146787
0.000146201
0.000145081
0.000143381
0.000141525
0.000139799
0.000138313
0.000137091
0.000136124
0.000135703
0.000136616
0.000137769
0.000139178
0.000140835
0.000142671
0.00014446
0.000145765
0.000146531
0.000146881
0.000146881
0.000146531
0.000145765
0.00014446
0.000142671
0.000140835
0.000139177
0.000137768
0.000136613
0.0001357
0.000135539
0.000136427
0.000137547
0.000138916
0.000140534
0.000142346
0.000144156
0.000145531
0.000146373
0.00014677
0.00014677
0.000146374
0.000145532
0.000144156
0.000142346
0.000140533
0.000138915
0.000137545
0.000136424
0.000135535
0.000135519
0.000136396
0.000137499
0.000138846
0.000140439
0.000142228
0.000144028
0.000145415
0.000146277
0.000146688
0.000146688
0.000146278
0.000145415
0.000144028
0.000142228
0.000140438
0.000138845
0.000137497
0.000136393
0.000135515
0.000135574
0.000136448
0.000137543
0.000138879
0.000140454
0.00014222
0.000143994
0.000145362
0.000146214
0.00014662
0.00014662
0.000146214
0.000145362
0.000143994
0.00014222
0.000140453
0.000138877
0.00013754
0.000136444
0.000135569
0.000135646
0.00013652
0.000137613
0.000138944
0.000140508
0.000142253
0.000143994
0.000145331
0.000146161
0.000146557
0.000146557
0.000146161
0.000145331
0.000143995
0.000142253
0.000140507
0.000138942
0.000137609
0.000136514
0.000135639
0.000135707
0.000136584
0.000137682
0.000139016
0.000140574
0.000142297
0.000144004
0.000145307
0.000146113
0.000146496
0.000146496
0.000146113
0.000145307
0.000144004
0.000142297
0.000140573
0.000139014
0.000137678
0.000136577
0.000135698
0.00013574
0.00013663
0.000137745
0.000139088
0.00014064
0.000142341
0.000144013
0.000145284
0.000146067
0.000146439
0.000146439
0.000146068
0.000145284
0.000144014
0.000142341
0.00014064
0.000139086
0.00013774
0.000136622
0.000135729
0.000135725
0.000136658
0.000137807
0.000139162
0.000140705
0.000142381
0.000144021
0.000145263
0.000146026
0.000146387
0.000146387
0.000146027
0.000145264
0.000144021
0.000142381
0.000140704
0.00013916
0.000137802
0.00013665
0.000135714
0.000135631
0.000136689
0.000137876
0.000139233
0.000140762
0.000142416
0.000144027
0.000145245
0.000145991
0.000146343
0.000146343
0.000145991
0.000145246
0.000144027
0.000142416
0.000140762
0.000139231
0.000137871
0.000136681
0.000135621
)
;

boundaryField
{
    defaultFaces
    {
        type            empty;
    }
}


// ************************************************************************* //
