/*--------------------------------*- C++ -*----------------------------------*\
  =========                 |
  \\      /  F ield         | OpenFOAM: The Open Source CFD Toolbox
   \\    /   O peration     | Website:  https://openfoam.org
    \\  /    A nd           | Version:  11
     \\/     M anipulation  |
\*---------------------------------------------------------------------------*/
FoamFile
{
    format      ascii;
    class       volScalarField;
    location    "10";
    object      epsilon;
}
// * * * * * * * * * * * * * * * * * * * * * * * * * * * * * * * * * * * * * //

dimensions      [0 2 -3 0 0 0 0];

internalField   nonuniform List<scalar> 
400
(
5.50808e-05
3.65858e-05
2.73097e-05
2.25646e-05
1.96387e-05
1.76138e-05
1.62093e-05
1.52796e-05
1.47881e-05
1.45678e-05
1.45682e-05
1.47896e-05
1.52822e-05
1.62132e-05
1.76197e-05
1.9647e-05
2.25755e-05
2.73222e-05
3.65962e-05
5.50887e-05
3.69842e-05
3.52845e-05
2.92504e-05
2.41069e-05
2.05774e-05
1.81807e-05
1.65629e-05
1.55497e-05
1.50083e-05
1.47675e-05
1.4768e-05
1.50098e-05
1.55523e-05
1.65671e-05
1.81869e-05
2.0586e-05
2.41178e-05
2.92616e-05
3.52928e-05
3.69889e-05
2.76383e-05
2.94957e-05
2.79807e-05
2.46752e-05
2.13771e-05
1.87926e-05
1.69821e-05
1.58742e-05
1.52776e-05
1.50129e-05
1.50133e-05
1.52791e-05
1.5877e-05
1.69865e-05
1.8799e-05
2.13855e-05
2.4685e-05
2.79896e-05
2.95018e-05
2.7642e-05
2.28133e-05
2.43627e-05
2.48218e-05
2.36847e-05
2.15285e-05
1.92436e-05
1.74001e-05
1.62299e-05
1.55875e-05
1.53008e-05
1.53013e-05
1.55891e-05
1.62327e-05
1.74045e-05
1.92498e-05
2.15361e-05
2.36926e-05
2.48285e-05
2.43675e-05
2.28166e-05
1.98485e-05
2.07865e-05
2.15455e-05
2.16146e-05
2.07529e-05
1.92484e-05
1.76786e-05
1.65568e-05
1.59081e-05
1.56121e-05
1.56126e-05
1.59096e-05
1.65596e-05
1.76828e-05
1.92539e-05
2.07592e-05
2.16206e-05
2.15504e-05
2.07902e-05
1.98513e-05
1.77777e-05
1.83349e-05
1.89236e-05
1.93357e-05
1.92877e-05
1.86498e-05
1.76375e-05
1.67438e-05
1.61712e-05
1.58974e-05
1.58979e-05
1.61727e-05
1.67463e-05
1.76411e-05
1.86543e-05
1.92924e-05
1.934e-05
1.89271e-05
1.83377e-05
1.77799e-05
1.63046e-05
1.66475e-05
1.70482e-05
1.74421e-05
1.76909e-05
1.76253e-05
1.72011e-05
1.66699e-05
1.62703e-05
1.60639e-05
1.60643e-05
1.62716e-05
1.6672e-05
1.72039e-05
1.76286e-05
1.76942e-05
1.7445e-05
1.70505e-05
1.66493e-05
1.6306e-05
1.53714e-05
1.5602e-05
1.58838e-05
1.61968e-05
1.6485e-05
1.66465e-05
1.65858e-05
1.63673e-05
1.61571e-05
1.60366e-05
1.60369e-05
1.61581e-05
1.63689e-05
1.65878e-05
1.66488e-05
1.64871e-05
1.61988e-05
1.58853e-05
1.56031e-05
1.53721e-05
1.47755e-05
1.49492e-05
1.51656e-05
1.54189e-05
1.56866e-05
1.59154e-05
1.60276e-05
1.60039e-05
1.59337e-05
1.58835e-05
1.58837e-05
1.59344e-05
1.6005e-05
1.6029e-05
1.59169e-05
1.5688e-05
1.54202e-05
1.51664e-05
1.49497e-05
1.47758e-05
1.43759e-05
1.45167e-05
1.46943e-05
1.49079e-05
1.51489e-05
1.53897e-05
1.55759e-05
1.56596e-05
1.5678e-05
1.56759e-05
1.56761e-05
1.56785e-05
1.56604e-05
1.55769e-05
1.53906e-05
1.51498e-05
1.49087e-05
1.46947e-05
1.45169e-05
1.43758e-05
1.41008e-05
1.42215e-05
1.43746e-05
1.45616e-05
1.47799e-05
1.50149e-05
1.52287e-05
1.53661e-05
1.54347e-05
1.54616e-05
1.54617e-05
1.5435e-05
1.53666e-05
1.52293e-05
1.50155e-05
1.47804e-05
1.4562e-05
1.43747e-05
1.42213e-05
1.41004e-05
1.39099e-05
1.40177e-05
1.41548e-05
1.43238e-05
1.45246e-05
1.47492e-05
1.49697e-05
1.5131e-05
1.52252e-05
1.52678e-05
1.52679e-05
1.52254e-05
1.51313e-05
1.497e-05
1.47496e-05
1.45249e-05
1.43239e-05
1.41547e-05
1.40173e-05
1.39093e-05
1.37788e-05
1.38783e-05
1.40049e-05
1.41614e-05
1.43492e-05
1.45634e-05
1.47817e-05
1.49512e-05
1.50567e-05
1.51068e-05
1.51069e-05
1.50568e-05
1.49514e-05
1.47818e-05
1.45635e-05
1.43492e-05
1.41613e-05
1.40045e-05
1.38778e-05
1.37781e-05
1.36924e-05
1.37865e-05
1.3906e-05
1.4054e-05
1.42322e-05
1.44373e-05
1.46501e-05
1.48201e-05
1.49289e-05
1.49818e-05
1.49818e-05
1.4929e-05
1.48202e-05
1.46501e-05
1.44373e-05
1.42321e-05
1.40538e-05
1.39055e-05
1.37858e-05
1.36916e-05
1.36463e-05
1.37373e-05
1.38527e-05
1.39955e-05
1.41675e-05
1.43658e-05
1.45726e-05
1.47394e-05
1.48474e-05
1.49003e-05
1.49003e-05
1.48474e-05
1.47394e-05
1.45726e-05
1.43657e-05
1.41673e-05
1.39951e-05
1.3852e-05
1.37364e-05
1.36452e-05
1.36265e-05
1.37161e-05
1.38294e-05
1.39697e-05
1.41382e-05
1.43319e-05
1.45335e-05
1.46963e-05
1.48019e-05
1.48538e-05
1.48538e-05
1.48019e-05
1.46963e-05
1.45334e-05
1.43318e-05
1.4138e-05
1.39692e-05
1.38287e-05
1.3715e-05
1.36252e-05
1.36191e-05
1.37084e-05
1.38213e-05
1.39608e-05
1.41274e-05
1.43177e-05
1.45148e-05
1.46736e-05
1.47767e-05
1.48274e-05
1.48274e-05
1.47767e-05
1.46736e-05
1.45147e-05
1.43176e-05
1.41271e-05
1.39603e-05
1.38205e-05
1.37071e-05
1.36175e-05
1.3616e-05
1.37062e-05
1.38205e-05
1.39604e-05
1.41258e-05
1.43132e-05
1.45063e-05
1.46617e-05
1.47624e-05
1.48118e-05
1.48118e-05
1.47623e-05
1.46616e-05
1.45062e-05
1.43131e-05
1.41256e-05
1.39599e-05
1.38196e-05
1.37048e-05
1.36142e-05
1.36117e-05
1.37061e-05
1.38236e-05
1.39644e-05
1.41287e-05
1.43135e-05
1.45031e-05
1.46554e-05
1.4754e-05
1.48024e-05
1.48023e-05
1.4754e-05
1.46554e-05
1.4503e-05
1.43133e-05
1.41284e-05
1.39639e-05
1.38227e-05
1.37046e-05
1.36098e-05
1.36013e-05
1.37082e-05
1.38294e-05
1.39704e-05
1.41333e-05
1.43157e-05
1.45024e-05
1.46522e-05
1.4749e-05
1.47965e-05
1.47965e-05
1.4749e-05
1.46522e-05
1.45023e-05
1.43156e-05
1.4133e-05
1.39699e-05
1.38285e-05
1.37067e-05
1.35995e-05
)
;

boundaryField
{
    defaultFaces
    {
        type            empty;
    }
}


// ************************************************************************* //
