/*--------------------------------*- C++ -*----------------------------------*\
  =========                 |
  \\      /  F ield         | OpenFOAM: The Open Source CFD Toolbox
   \\    /   O peration     | Website:  https://openfoam.org
    \\  /    A nd           | Version:  11
     \\/     M anipulation  |
\*---------------------------------------------------------------------------*/
FoamFile
{
    format      ascii;
    class       volScalarField;
    location    "10";
    object      k;
}
// * * * * * * * * * * * * * * * * * * * * * * * * * * * * * * * * * * * * * //

dimensions      [0 2 -2 0 0 0 0];

internalField   nonuniform List<scalar> 
400
(
0.000536529
0.000356454
0.000266115
0.000219955
0.000191526
0.000171867
0.000158242
0.000149226
0.000144463
0.000142328
0.000142331
0.000144474
0.000149245
0.000158272
0.00017191
0.000191585
0.000220031
0.000266201
0.000356532
0.000536599
0.000360319
0.000343822
0.000285091
0.000235029
0.000200696
0.000177403
0.000161695
0.000151862
0.000146612
0.000144277
0.000144281
0.000146623
0.000151882
0.000161726
0.000177449
0.000200758
0.000235105
0.000285171
0.000343887
0.000360361
0.000269268
0.000287453
0.000272747
0.000240593
0.000208508
0.000183377
0.000165785
0.000155026
0.000149236
0.000146667
0.00014667
0.000149247
0.000155047
0.000165817
0.000183424
0.000208569
0.000240663
0.000272812
0.000287501
0.0002693
0.000222287
0.000237452
0.00024198
0.000230949
0.000209988
0.000187773
0.000169854
0.000158486
0.000152248
0.000149464
0.000149468
0.000152261
0.000158508
0.000169887
0.000187818
0.000210044
0.000231007
0.000242031
0.000237489
0.000222314
0.000193416
0.000202602
0.000210046
0.000210767
0.000202417
0.000187802
0.00017255
0.000161651
0.00015535
0.000152475
0.000152479
0.000155362
0.000161673
0.000172582
0.000187844
0.000202463
0.000210812
0.000210084
0.000202631
0.000193439
0.000173216
0.00017868
0.000184457
0.000188516
0.000188094
0.000181924
0.000172101
0.000163424
0.000157864
0.000155205
0.000155209
0.000157876
0.000163444
0.000172129
0.000181958
0.00018813
0.00018855
0.000184485
0.000178702
0.000173234
0.000158786
0.000162155
0.000166093
0.000169972
0.000172441
0.000171846
0.000167754
0.000162609
0.000158735
0.000156732
0.000156735
0.000158745
0.000162626
0.000167777
0.000171872
0.000172467
0.000169996
0.000166113
0.00016217
0.000158798
0.000149567
0.000151838
0.000154613
0.000157698
0.000160546
0.000162164
0.000161613
0.000159515
0.000157485
0.000156319
0.000156322
0.000157493
0.000159528
0.00016163
0.000162182
0.000160564
0.000157714
0.000154625
0.000151847
0.000149574
0.000143612
0.000145322
0.000147455
0.000149954
0.000152598
0.000154867
0.000155998
0.000155797
0.000155131
0.00015465
0.000154652
0.000155137
0.000155807
0.00015601
0.00015488
0.00015261
0.000149964
0.000147463
0.000145328
0.000143615
0.000139558
0.000140945
0.000142693
0.000144799
0.000147175
0.000149555
0.000151404
0.000152246
0.000152442
0.000152429
0.00015243
0.000152446
0.000152253
0.000151412
0.000149564
0.000147183
0.000144806
0.000142698
0.000140947
0.000139558
0.000136718
0.000137904
0.000139408
0.000141248
0.000143396
0.000145711
0.000147821
0.000149183
0.000149865
0.000150133
0.000150134
0.000149868
0.000149187
0.000147827
0.000145717
0.000143401
0.000141252
0.00013941
0.000137903
0.000136716
0.000134708
0.000135764
0.000137108
0.000138764
0.000140734
0.000142939
0.000145106
0.000146693
0.000147622
0.000148042
0.000148043
0.000147623
0.000146696
0.000145109
0.000142942
0.000140737
0.000138766
0.000137107
0.000135762
0.000134705
0.000133299
0.000134269
0.000135504
0.000137033
0.000138868
0.000140963
0.0001431
0.000144762
0.000145796
0.000146288
0.000146288
0.000145797
0.000144763
0.000143102
0.000140964
0.000138869
0.000137033
0.000135502
0.000134265
0.000133294
0.000132346
0.00013326
0.000134422
0.000135862
0.000137597
0.000139596
0.000141672
0.000143332
0.000144396
0.000144913
0.000144913
0.000144396
0.000143333
0.000141673
0.000139596
0.000137597
0.00013586
0.000134419
0.000133255
0.000132339
0.00013182
0.000132702
0.00013382
0.000135206
0.000136877
0.000138805
0.000140816
0.000142441
0.000143494
0.00014401
0.00014401
0.000143494
0.000142441
0.000140816
0.000138804
0.000136875
0.000135203
0.000133816
0.000132695
0.000131812
0.000131583
0.00013245
0.000133547
0.000134906
0.00013654
0.00013842
0.000140379
0.000141962
0.000142991
0.000143496
0.000143496
0.000142991
0.000141962
0.000140378
0.000138419
0.000136538
0.000134902
0.000133541
0.000132442
0.000131573
0.000131487
0.00013235
0.000133443
0.000134793
0.000136408
0.000138253
0.000140167
0.000141711
0.000142714
0.000143207
0.000143207
0.000142714
0.000141711
0.000140166
0.000138252
0.000136405
0.000134789
0.000133436
0.00013234
0.000131475
0.000131445
0.000132317
0.000133422
0.000134776
0.000136379
0.000138196
0.00014007
0.00014158
0.000142559
0.00014304
0.00014304
0.000142559
0.000141579
0.000140069
0.000138195
0.000136377
0.000134772
0.000133415
0.000132306
0.000131431
0.000131399
0.000132311
0.000133447
0.000134809
0.0001364
0.000138192
0.000140032
0.000141512
0.000142471
0.000142942
0.000142942
0.000142471
0.000141512
0.000140031
0.000138191
0.000136398
0.000134805
0.00013344
0.000132299
0.000131384
0.000131297
0.00013233
0.000133502
0.000134866
0.000136443
0.000138212
0.000140023
0.00014148
0.000142421
0.000142883
0.000142883
0.000142421
0.000141479
0.000140023
0.000138211
0.000136441
0.000134862
0.000133495
0.000132319
0.000131284
)
;

boundaryField
{
    defaultFaces
    {
        type            empty;
    }
}


// ************************************************************************* //
