/*--------------------------------*- C++ -*----------------------------------*\
  =========                 |
  \\      /  F ield         | OpenFOAM: The Open Source CFD Toolbox
   \\    /   O peration     | Website:  https://openfoam.org
    \\  /    A nd           | Version:  11
     \\/     M anipulation  |
\*---------------------------------------------------------------------------*/
FoamFile
{
    format      ascii;
    class       volScalarField;
    location    "10";
    object      nut;
}
// * * * * * * * * * * * * * * * * * * * * * * * * * * * * * * * * * * * * * //

dimensions      [0 2 -1 0 0 0 0];

internalField   nonuniform List<scalar> 
400
(
0.000470358
0.000312563
0.00023338
0.000192968
0.000168106
0.000150929
0.000139035
0.000131165
0.000127012
0.000125149
0.000125152
0.000127019
0.000131177
0.000139053
0.000150954
0.000168139
0.000193007
0.000233425
0.000312611
0.000470414
0.000315937
0.000301526
0.000250079
0.000206226
0.00017617
0.000155796
0.000142069
0.000133481
0.000128899
0.000126861
0.000126863
0.000128906
0.000133494
0.000142088
0.000155822
0.000176204
0.000206267
0.000250124
0.000301569
0.000315971
0.000236104
0.000252126
0.000239278
0.000211129
0.000183037
0.000161044
0.000145659
0.000136257
0.000131199
0.000128956
0.000128959
0.000131207
0.00013627
0.000145679
0.000161071
0.000183071
0.000211168
0.000239317
0.000252158
0.000236127
0.000194932
0.00020829
0.000212309
0.000202678
0.00018434
0.0001649
0.000149226
0.000139287
0.000133835
0.000131403
0.000131405
0.000133843
0.0001393
0.000149246
0.000164927
0.000184372
0.000202713
0.000212341
0.000208315
0.000194951
0.000169629
0.000177725
0.000184296
0.000184969
0.000177687
0.000164911
0.000151573
0.000142044
0.000136535
0.000134023
0.000134026
0.000136544
0.000142058
0.000151593
0.000164937
0.000177715
0.000184997
0.000184321
0.000177745
0.000169644
0.000151895
0.000156717
0.000161819
0.000165418
0.000165087
0.000159715
0.000151138
0.000143556
0.000138697
0.000136373
0.000136376
0.000138705
0.000143569
0.000151156
0.000159737
0.00016511
0.00016544
0.000161838
0.000156732
0.000151907
0.000139174
0.000142152
0.000145637
0.000149073
0.000151277
0.000150795
0.000147242
0.000142758
0.000139376
0.000137627
0.00013763
0.000139383
0.000142769
0.000147257
0.000150812
0.000151295
0.00014909
0.00014565
0.000142163
0.000139183
0.000130979
0.00013299
0.000135449
0.000138186
0.00014072
0.000142176
0.000141729
0.000139916
0.000138152
0.000137137
0.000137139
0.000138158
0.000139926
0.000141741
0.00014219
0.000140733
0.000138198
0.000135459
0.000132998
0.000130985
0.000125626
0.000127142
0.000129034
0.000131251
0.000133601
0.000135626
0.000136652
0.000136501
0.000135933
0.000135518
0.00013552
0.000135937
0.000136508
0.000136661
0.000135635
0.00013361
0.000131259
0.00012904
0.000127147
0.000125629
0.000121931
0.00012316
0.00012471
0.000126577
0.000128686
0.000130802
0.000132453
0.000133215
0.000133401
0.000133396
0.000133397
0.000133404
0.00013322
0.00013246
0.000130809
0.000128693
0.000126583
0.000124714
0.000123163
0.000121933
0.000119303
0.000120351
0.000121682
0.00012331
0.000125212
0.000127264
0.000129138
0.000130351
0.000130961
0.000131203
0.000131203
0.000130964
0.000130355
0.000129143
0.000127269
0.000125216
0.000123313
0.000121684
0.000120352
0.000119302
0.000117411
0.000118341
0.000119526
0.000120987
0.000122726
0.000124674
0.00012659
0.000127996
0.000128819
0.000129192
0.000129193
0.000128821
0.000127998
0.000126593
0.000124677
0.000122728
0.000120989
0.000119526
0.000118341
0.000117409
0.00011606
0.000116912
0.000117996
0.00011934
0.000120954
0.000122798
0.000124681
0.000126146
0.000127059
0.000127493
0.000127494
0.00012706
0.000126147
0.000124682
0.000122799
0.000120955
0.00011934
0.000117996
0.00011691
0.000116057
0.000115129
0.000115928
0.000116945
0.000118206
0.000119726
0.00012148
0.000123302
0.000124761
0.000125696
0.000126151
0.000126151
0.000125697
0.000124762
0.000123303
0.00012148
0.000119726
0.000118205
0.000116943
0.000115925
0.000115125
0.000114602
0.000115371
0.000116347
0.000117557
0.000119017
0.000120703
0.000122465
0.000123889
0.000124813
0.000125266
0.000125266
0.000124813
0.00012389
0.000122465
0.000120703
0.000119016
0.000117555
0.000116344
0.000115367
0.000114597
0.000114356
0.000115111
0.000116067
0.000117251
0.000118678
0.00012032
0.000122032
0.000123418
0.00012432
0.000124763
0.000124763
0.00012432
0.000123418
0.000122032
0.000120319
0.000118676
0.000117249
0.000116063
0.000115105
0.00011435
0.000114251
0.000115002
0.000115953
0.00011713
0.000118538
0.000120149
0.000121821
0.000123172
0.00012405
0.000124482
0.000124482
0.00012405
0.000123172
0.00012182
0.000120148
0.000118536
0.000117127
0.000115949
0.000114996
0.000114244
0.000114204
0.000114962
0.000115924
0.000117104
0.000118501
0.000120087
0.000121724
0.000123044
0.000123901
0.000124323
0.000124322
0.000123901
0.000123044
0.000121723
0.000120086
0.000118499
0.000117101
0.00011592
0.000114956
0.000114196
0.00011416
0.000114952
0.000115941
0.000117128
0.000118515
0.000120078
0.000121685
0.00012298
0.000123819
0.000124231
0.000124231
0.000123819
0.000122979
0.000121685
0.000120077
0.000118513
0.000117125
0.000115937
0.000114946
0.000114151
0.00011407
0.000114968
0.000115988
0.000117175
0.00011855
0.000120094
0.000121676
0.000122949
0.000123773
0.000124178
0.000124178
0.000123773
0.000122949
0.000121675
0.000120093
0.000118549
0.000117173
0.000115983
0.000114961
0.000114062
)
;

boundaryField
{
    defaultFaces
    {
        type            empty;
    }
}


// ************************************************************************* //
