/*--------------------------------*- C++ -*----------------------------------*\
  =========                 |
  \\      /  F ield         | OpenFOAM: The Open Source CFD Toolbox
   \\    /   O peration     | Website:  https://openfoam.org
    \\  /    A nd           | Version:  11
     \\/     M anipulation  |
\*---------------------------------------------------------------------------*/
FoamFile
{
    format      ascii;
    class       volScalarField;
    location    "9.5";
    object      epsilon;
}
// * * * * * * * * * * * * * * * * * * * * * * * * * * * * * * * * * * * * * //

dimensions      [0 2 -3 0 0 0 0];

internalField   nonuniform List<scalar> 
400
(
6.08215e-05
4.03976e-05
3.01537e-05
2.49129e-05
2.16809e-05
1.94435e-05
1.78914e-05
1.68639e-05
1.63206e-05
1.60769e-05
1.60775e-05
1.63221e-05
1.68667e-05
1.78958e-05
1.94503e-05
2.16903e-05
2.49253e-05
3.01678e-05
4.04093e-05
6.08301e-05
4.08383e-05
3.89612e-05
3.22972e-05
2.66165e-05
2.27178e-05
2.00698e-05
1.8282e-05
1.71622e-05
1.65637e-05
1.62975e-05
1.6298e-05
1.65654e-05
1.71651e-05
1.82867e-05
2.00769e-05
2.27276e-05
2.66288e-05
3.23099e-05
3.89705e-05
4.08434e-05
3.05185e-05
3.25692e-05
3.08956e-05
2.72447e-05
2.36014e-05
2.07461e-05
1.87454e-05
1.75208e-05
1.68613e-05
1.65686e-05
1.65691e-05
1.6863e-05
1.75239e-05
1.87503e-05
2.07533e-05
2.3611e-05
2.72557e-05
3.09057e-05
3.2576e-05
3.05225e-05
2.51917e-05
2.69021e-05
2.74083e-05
2.61517e-05
2.37695e-05
2.1245e-05
1.92077e-05
1.79143e-05
1.72042e-05
1.68871e-05
1.68877e-05
1.72059e-05
1.79174e-05
1.92126e-05
2.12519e-05
2.37781e-05
2.61606e-05
2.74158e-05
2.69073e-05
2.51953e-05
2.19202e-05
2.29551e-05
2.37921e-05
2.38674e-05
2.29146e-05
2.12517e-05
1.95167e-05
1.82767e-05
1.75594e-05
1.72322e-05
1.72328e-05
1.75612e-05
1.82798e-05
1.95214e-05
2.12579e-05
2.29216e-05
2.38741e-05
2.37976e-05
2.29591e-05
2.19233e-05
1.96374e-05
2.02517e-05
2.09004e-05
2.1354e-05
2.12995e-05
2.05935e-05
1.9474e-05
1.84858e-05
1.78527e-05
1.755e-05
1.75505e-05
1.78544e-05
1.84887e-05
1.94781e-05
2.05986e-05
2.13048e-05
2.13588e-05
2.09043e-05
2.02546e-05
1.96398e-05
1.8017e-05
1.83944e-05
1.88354e-05
1.92687e-05
1.95417e-05
1.94673e-05
1.89971e-05
1.84092e-05
1.79671e-05
1.77388e-05
1.77393e-05
1.79686e-05
1.84116e-05
1.90003e-05
1.9471e-05
1.95453e-05
1.92719e-05
1.8838e-05
1.83964e-05
1.80185e-05
1.69946e-05
1.72481e-05
1.75578e-05
1.79016e-05
1.82178e-05
1.83942e-05
1.83252e-05
1.80825e-05
1.78496e-05
1.77161e-05
1.77164e-05
1.78506e-05
1.80843e-05
1.83275e-05
1.83967e-05
1.82202e-05
1.79037e-05
1.75594e-05
1.72492e-05
1.69953e-05
1.63452e-05
1.65359e-05
1.67735e-05
1.70516e-05
1.73453e-05
1.7596e-05
1.77178e-05
1.76903e-05
1.76119e-05
1.7556e-05
1.75563e-05
1.76127e-05
1.76915e-05
1.77194e-05
1.75976e-05
1.73469e-05
1.70529e-05
1.67744e-05
1.65364e-05
1.63454e-05
1.59125e-05
1.60671e-05
1.62621e-05
1.64967e-05
1.67611e-05
1.70252e-05
1.72291e-05
1.73202e-05
1.73396e-05
1.73369e-05
1.73371e-05
1.73402e-05
1.7321e-05
1.72301e-05
1.70262e-05
1.67621e-05
1.64975e-05
1.62625e-05
1.60672e-05
1.59123e-05
1.56168e-05
1.57495e-05
1.59178e-05
1.61234e-05
1.63632e-05
1.66212e-05
1.68558e-05
1.70064e-05
1.70814e-05
1.71108e-05
1.71109e-05
1.70818e-05
1.7007e-05
1.68565e-05
1.66219e-05
1.63637e-05
1.61238e-05
1.59179e-05
1.57493e-05
1.56164e-05
1.54135e-05
1.55322e-05
1.56832e-05
1.58692e-05
1.60901e-05
1.63372e-05
1.65795e-05
1.67568e-05
1.68602e-05
1.6907e-05
1.69071e-05
1.68604e-05
1.67571e-05
1.65799e-05
1.63375e-05
1.60904e-05
1.58693e-05
1.5683e-05
1.55317e-05
1.54128e-05
1.52752e-05
1.5385e-05
1.55246e-05
1.56972e-05
1.59042e-05
1.61402e-05
1.63807e-05
1.65673e-05
1.66834e-05
1.67386e-05
1.67386e-05
1.66835e-05
1.65675e-05
1.63808e-05
1.61404e-05
1.59042e-05
1.56971e-05
1.55242e-05
1.53843e-05
1.52744e-05
1.51851e-05
1.52891e-05
1.54211e-05
1.55847e-05
1.57815e-05
1.60079e-05
1.62427e-05
1.64302e-05
1.65502e-05
1.66085e-05
1.66085e-05
1.65502e-05
1.64302e-05
1.62427e-05
1.60079e-05
1.57814e-05
1.55844e-05
1.54206e-05
1.52882e-05
1.5184e-05
1.51377e-05
1.52385e-05
1.53661e-05
1.55242e-05
1.57144e-05
1.59337e-05
1.61621e-05
1.63463e-05
1.64655e-05
1.65239e-05
1.65239e-05
1.64655e-05
1.63463e-05
1.61621e-05
1.59335e-05
1.57142e-05
1.55237e-05
1.53654e-05
1.52374e-05
1.51365e-05
1.51179e-05
1.52171e-05
1.53427e-05
1.5498e-05
1.56846e-05
1.58988e-05
1.61217e-05
1.63016e-05
1.64183e-05
1.64756e-05
1.64756e-05
1.64183e-05
1.63016e-05
1.61216e-05
1.58987e-05
1.56842e-05
1.54975e-05
1.53418e-05
1.52158e-05
1.51163e-05
1.51108e-05
1.52098e-05
1.53349e-05
1.54894e-05
1.56739e-05
1.58845e-05
1.61025e-05
1.62781e-05
1.6392e-05
1.64479e-05
1.64479e-05
1.6392e-05
1.62781e-05
1.61024e-05
1.58844e-05
1.56736e-05
1.54888e-05
1.53339e-05
1.52082e-05
1.51089e-05
1.51079e-05
1.5208e-05
1.53346e-05
1.54896e-05
1.56728e-05
1.58803e-05
1.60939e-05
1.62656e-05
1.63769e-05
1.64315e-05
1.64315e-05
1.63768e-05
1.62656e-05
1.60938e-05
1.58801e-05
1.56725e-05
1.5489e-05
1.53335e-05
1.52062e-05
1.51057e-05
1.51034e-05
1.5208e-05
1.53383e-05
1.54943e-05
1.56763e-05
1.58808e-05
1.60906e-05
1.6259e-05
1.63679e-05
1.64214e-05
1.64214e-05
1.63679e-05
1.6259e-05
1.60905e-05
1.58807e-05
1.5676e-05
1.54937e-05
1.53372e-05
1.52062e-05
1.51011e-05
1.50918e-05
1.52104e-05
1.53449e-05
1.55011e-05
1.56815e-05
1.58835e-05
1.60899e-05
1.62556e-05
1.63625e-05
1.6415e-05
1.6415e-05
1.63625e-05
1.62556e-05
1.60898e-05
1.58833e-05
1.56812e-05
1.55005e-05
1.53437e-05
1.52087e-05
1.50898e-05
)
;

boundaryField
{
    defaultFaces
    {
        type            empty;
    }
}


// ************************************************************************* //
