/*--------------------------------*- C++ -*----------------------------------*\
  =========                 |
  \\      /  F ield         | OpenFOAM: The Open Source CFD Toolbox
   \\    /   O peration     | Website:  https://openfoam.org
    \\  /    A nd           | Version:  11
     \\/     M anipulation  |
\*---------------------------------------------------------------------------*/
FoamFile
{
    format      ascii;
    class       volScalarField;
    location    "9.5";
    object      k;
}
// * * * * * * * * * * * * * * * * * * * * * * * * * * * * * * * * * * * * * //

dimensions      [0 2 -2 0 0 0 0];

internalField   nonuniform List<scalar> 
400
(
0.000564428
0.000374982
0.000279937
0.000231369
0.00020145
0.000180757
0.000166412
0.000156917
0.0001519
0.00014965
0.000149654
0.000151912
0.000156938
0.000166444
0.000180804
0.000201514
0.000231451
0.000280031
0.000375066
0.000564502
0.000379053
0.000361696
0.000299905
0.00024723
0.000211101
0.000186584
0.000170046
0.000159691
0.00015416
0.000151701
0.000151705
0.000154173
0.000159713
0.000170079
0.000186634
0.000211168
0.000247313
0.000299991
0.000361766
0.000379099
0.000283273
0.000302399
0.000286923
0.000253089
0.000219324
0.000192873
0.000174352
0.000163022
0.000156923
0.000154216
0.00015422
0.000156935
0.000163045
0.000174387
0.000192924
0.00021939
0.000253164
0.000286994
0.000302451
0.000283306
0.000233859
0.000249806
0.000254564
0.00024295
0.000220889
0.000197505
0.00017864
0.000166668
0.000160098
0.000157165
0.000157169
0.000160111
0.000166691
0.000178676
0.000197554
0.000220949
0.000243013
0.000254618
0.000249846
0.000233887
0.000203506
0.000213162
0.000220984
0.000221732
0.000212937
0.000197549
0.000181488
0.00017001
0.000163372
0.000160343
0.000160348
0.000163385
0.000170033
0.000181523
0.000197594
0.000212987
0.000221781
0.000221025
0.000213193
0.000203531
0.00018229
0.000188028
0.000194094
0.000198352
0.000197894
0.000191388
0.000181039
0.000171898
0.00016604
0.000163238
0.000163243
0.000166053
0.00017192
0.00018107
0.000191425
0.000197933
0.000198388
0.000194124
0.000188052
0.000182309
0.000167163
0.000170696
0.000174827
0.000178892
0.000181473
0.00018083
0.000176509
0.000171083
0.000166998
0.000164887
0.00016489
0.000167009
0.000171101
0.000176533
0.000180858
0.000181501
0.000178917
0.000174847
0.000170712
0.000167176
0.000157534
0.000159912
0.000162818
0.000166048
0.000169027
0.00017071
0.000170113
0.000167892
0.000165748
0.000164517
0.00016452
0.000165756
0.000167906
0.000170131
0.00017073
0.000169046
0.000166065
0.000162831
0.000159921
0.000157541
0.000151342
0.000153132
0.000155364
0.000157978
0.000160742
0.000163111
0.000164283
0.000164058
0.000163349
0.000162839
0.000162841
0.000163355
0.000164068
0.000164296
0.000163125
0.000160755
0.000157989
0.000155372
0.000153137
0.000151345
0.000147151
0.000148603
0.000150433
0.000152636
0.000155121
0.000157608
0.000159536
0.00016041
0.000160607
0.000160589
0.000160591
0.000160612
0.000160417
0.000159545
0.000157617
0.00015513
0.000152643
0.000150437
0.000148605
0.000147152
0.000144235
0.000145478
0.000147053
0.00014898
0.000151228
0.000153651
0.000155857
0.000157278
0.000157988
0.000158268
0.000158269
0.000157991
0.000157282
0.000155862
0.000153657
0.000151233
0.000148984
0.000147055
0.000145477
0.000144233
0.000142187
0.000143295
0.000144704
0.000146441
0.000148506
0.000150817
0.000153086
0.000154748
0.000155719
0.000156159
0.00015616
0.000155721
0.000154751
0.00015309
0.00015082
0.000148509
0.000146443
0.000144704
0.000143292
0.000142183
0.000140762
0.000141782
0.00014308
0.000144686
0.000146613
0.000148812
0.000151055
0.000152798
0.000153882
0.000154398
0.000154398
0.000153883
0.000152799
0.000151056
0.000148814
0.000146614
0.000144685
0.000143077
0.000141778
0.000140756
0.000139807
0.00014077
0.000141993
0.000143509
0.000145335
0.000147437
0.000149619
0.000151363
0.00015248
0.000153023
0.000153023
0.000152481
0.000151364
0.000149619
0.000147437
0.000145334
0.000143507
0.000141989
0.000140764
0.0001398
0.000139287
0.000140217
0.000141396
0.000142857
0.000144617
0.000146647
0.000148764
0.000150474
0.000151581
0.000152123
0.000152123
0.000151581
0.000150474
0.000148764
0.000146646
0.000144615
0.000142853
0.000141391
0.000140209
0.000139278
0.000139056
0.000139971
0.000141129
0.000142562
0.000144285
0.000146267
0.000148329
0.000149997
0.000151079
0.000151611
0.000151611
0.000151079
0.000149996
0.000148329
0.000146265
0.000144283
0.000142558
0.000141122
0.000139961
0.000139044
0.000138965
0.000139876
0.00014103
0.000142454
0.000144158
0.000146104
0.00014812
0.000149746
0.000150802
0.000151321
0.000151321
0.000150802
0.000149746
0.000148119
0.000146102
0.000144155
0.00014245
0.000141022
0.000139865
0.000138951
0.000138925
0.000139846
0.000141013
0.000142442
0.000144133
0.00014605
0.000148025
0.000149615
0.000150646
0.000151153
0.000151152
0.000150646
0.000149615
0.000148024
0.000146048
0.000144131
0.000142438
0.000141005
0.000139834
0.00013891
0.000138878
0.000139842
0.000141041
0.00014248
0.000144159
0.000146048
0.000147988
0.000149547
0.000150557
0.000151052
0.000151052
0.000150556
0.000149547
0.000147987
0.000146047
0.000144156
0.000142475
0.000141034
0.000139829
0.000138862
0.000138771
0.000139862
0.0001411
0.00014254
0.000144205
0.00014607
0.000147979
0.000149514
0.000150505
0.000150991
0.000150991
0.000150504
0.000149513
0.000147979
0.000146069
0.000144202
0.000142536
0.000141092
0.00013985
0.000138757
)
;

boundaryField
{
    defaultFaces
    {
        type            empty;
    }
}


// ************************************************************************* //
