/*--------------------------------*- C++ -*----------------------------------*\
  =========                 |
  \\      /  F ield         | OpenFOAM: The Open Source CFD Toolbox
   \\    /   O peration     | Website:  https://openfoam.org
    \\  /    A nd           | Version:  11
     \\/     M anipulation  |
\*---------------------------------------------------------------------------*/
FoamFile
{
    format      ascii;
    class       volScalarField;
    location    "9.5";
    object      nut;
}
// * * * * * * * * * * * * * * * * * * * * * * * * * * * * * * * * * * * * * //

dimensions      [0 2 -1 0 0 0 0];

internalField   nonuniform List<scalar> 
400
(
0.000471413
0.000313261
0.000233896
0.000193387
0.000168462
0.000151237
0.000139305
0.000131409
0.00012724
0.00012537
0.000125373
0.000127247
0.000131422
0.000139324
0.000151263
0.000168496
0.000193428
0.000233943
0.000313312
0.000471472
0.000316648
0.000302202
0.000250636
0.000206679
0.000176546
0.000156117
0.000142347
0.000133731
0.000129131
0.000127086
0.000127088
0.000129139
0.000133744
0.000142367
0.000156144
0.000176582
0.000206721
0.000250682
0.000302247
0.000316684
0.00023664
0.000252695
0.000239815
0.000211596
0.000183433
0.00016138
0.000145949
0.000136515
0.000131439
0.000129187
0.000129189
0.000131447
0.000136529
0.00014597
0.000161408
0.000183469
0.000211636
0.000239855
0.000252729
0.000236665
0.000195386
0.000208768
0.000212791
0.000203132
0.000184745
0.000165251
0.000149529
0.000139556
0.000134085
0.000131642
0.000131645
0.000134093
0.00013957
0.00014955
0.000165279
0.000184778
0.000203168
0.000212824
0.000208794
0.000195405
0.000170041
0.000178149
0.000184728
0.000185394
0.000178087
0.000165272
0.000151891
0.000142329
0.0001368
0.000134277
0.00013428
0.000136808
0.000142343
0.000151912
0.000165298
0.000178117
0.000185424
0.000184753
0.00017817
0.000170058
0.000152294
0.000157119
0.000162223
0.00016582
0.000165478
0.000160082
0.000151472
0.000143862
0.000138984
0.00013665
0.000136653
0.000138992
0.000143876
0.000151491
0.000160105
0.000165502
0.000165843
0.000162243
0.000157135
0.000152307
0.000139585
0.000142562
0.000146044
0.000149476
0.000151672
0.000151175
0.0001476
0.000143094
0.000139697
0.00013794
0.000137942
0.000139704
0.000143106
0.000147616
0.000151193
0.00015169
0.000149493
0.000146058
0.000142574
0.000139595
0.000131425
0.000133432
0.000135887
0.000138617
0.000141142
0.000142587
0.000142124
0.000140295
0.000138519
0.000137498
0.0001375
0.000138525
0.000140304
0.000142136
0.0001426
0.000141156
0.000138629
0.000135897
0.00013344
0.000131431
0.000126116
0.000127629
0.000129515
0.000131726
0.000134067
0.000136081
0.000137095
0.000136932
0.000136354
0.000135935
0.000135936
0.000136359
0.000136939
0.000137104
0.000136091
0.000134076
0.000131734
0.000129521
0.000127634
0.00012612
0.000122471
0.000123697
0.000125242
0.000127103
0.000129206
0.000131313
0.000132954
0.000133706
0.000133885
0.000133877
0.000133878
0.000133889
0.000133711
0.00013296
0.00013132
0.000129212
0.000127109
0.000125246
0.000123699
0.000122473
0.000119893
0.000120939
0.000122267
0.000123891
0.000125789
0.000127835
0.000129701
0.000130907
0.000131513
0.000131752
0.000131753
0.000131515
0.000130911
0.000129706
0.000127839
0.000125793
0.000123895
0.000122269
0.00012094
0.000119893
0.000118049
0.000118979
0.000120163
0.000121623
0.000123359
0.000125304
0.000127216
0.000128618
0.000129438
0.00012981
0.000129811
0.00012944
0.000128621
0.000127219
0.000125307
0.000123361
0.000121624
0.000120163
0.000118978
0.000118047
0.000116742
0.000117595
0.000118681
0.000120025
0.00012164
0.000123484
0.000125366
0.00012683
0.000127742
0.000128176
0.000128176
0.000127743
0.000126832
0.000125368
0.000123485
0.000121641
0.000120025
0.00011868
0.000117592
0.000116739
0.000115847
0.000116649
0.000117669
0.000118933
0.000120457
0.000122214
0.000124039
0.000125499
0.000126435
0.00012689
0.00012689
0.000126435
0.000125499
0.000124039
0.000122214
0.000120457
0.000118932
0.000117667
0.000116646
0.000115843
0.000115346
0.000116119
0.000117099
0.000118314
0.000119779
0.000121471
0.000123237
0.000124665
0.00012559
0.000126044
0.000126044
0.00012559
0.000124665
0.000123237
0.00012147
0.000119778
0.000118312
0.000117095
0.000116114
0.00011534
0.000115115
0.000115873
0.000116834
0.000118025
0.000119458
0.000121106
0.000122825
0.000124215
0.000125119
0.000125563
0.000125563
0.000125119
0.000124215
0.000122825
0.000121106
0.000119456
0.000118023
0.00011683
0.000115868
0.000115108
0.000115018
0.000115773
0.00011673
0.000117912
0.000119328
0.000120946
0.000122624
0.00012398
0.000124861
0.000125294
0.000125294
0.000124861
0.00012398
0.000122624
0.000120945
0.000119326
0.00011791
0.000116725
0.000115766
0.00011501
0.000114974
0.000115737
0.000116705
0.000117891
0.000119295
0.000120889
0.000122533
0.000123858
0.000124717
0.00012514
0.00012514
0.000124717
0.000123857
0.000122532
0.000120888
0.000119294
0.000117888
0.0001167
0.00011573
0.000114965
0.000114931
0.000115729
0.000116724
0.000117917
0.000119312
0.000120882
0.000122496
0.000123795
0.000124637
0.000125051
0.000125051
0.000124637
0.000123795
0.000122496
0.000120881
0.00011931
0.000117914
0.000116719
0.000115722
0.000114922
0.000114842
0.000115745
0.000116771
0.000117966
0.000119348
0.000120899
0.000122488
0.000123766
0.000124592
0.000124998
0.000124998
0.000124592
0.000123765
0.000122487
0.000120898
0.000119346
0.000117963
0.000116766
0.000115738
0.000114833
)
;

boundaryField
{
    defaultFaces
    {
        type            empty;
    }
}


// ************************************************************************* //
