/*--------------------------------*- C++ -*----------------------------------*\
  =========                 |
  \\      /  F ield         | OpenFOAM: The Open Source CFD Toolbox
   \\    /   O peration     | Website:  https://openfoam.org
    \\  /    A nd           | Version:  11
     \\/     M anipulation  |
\*---------------------------------------------------------------------------*/
FoamFile
{
    format      ascii;
    class       volScalarField;
    location    "0.5";
    object      epsilon;
}
// * * * * * * * * * * * * * * * * * * * * * * * * * * * * * * * * * * * * * //

dimensions      [0 2 -3 0 0 0 0];

internalField   nonuniform List<scalar> 
400
(
0.00519138
0.00343988
0.00257551
0.00215999
0.00194491
0.00184667
0.00182102
0.00181156
0.00181154
0.00181212
0.00181212
0.00181155
0.00181156
0.00182103
0.00184671
0.00194504
0.00216028
0.00257577
0.00343967
0.00519045
0.00348115
0.00331966
0.00275555
0.0022951
0.00201842
0.00188563
0.00184544
0.0018351
0.00183461
0.00183518
0.00183518
0.00183461
0.0018351
0.00184545
0.00188568
0.00201856
0.00229531
0.00275561
0.00331935
0.00348057
0.0026162
0.00278362
0.0026411
0.00234635
0.00208348
0.00192948
0.00187449
0.0018618
0.00186056
0.00186096
0.00186096
0.00186056
0.00186181
0.0018745
0.00192953
0.00208358
0.00234645
0.00264104
0.00278338
0.00261591
0.00220163
0.00233127
0.00236624
0.00226644
0.00209989
0.00196451
0.00190398
0.00188918
0.0018872
0.00188738
0.00188738
0.0018872
0.00188918
0.00190399
0.00196454
0.00209994
0.00226645
0.00236616
0.00233113
0.0022015
0.00199245
0.0020588
0.00211264
0.00211429
0.00205416
0.00197464
0.00192697
0.0019132
0.00191093
0.00191089
0.00191089
0.00191093
0.00191321
0.00192698
0.00197465
0.00205416
0.00211427
0.00211259
0.00205873
0.00199239
0.00189787
0.00192835
0.00196176
0.0019851
0.00198342
0.00195954
0.00193736
0.0019292
0.00192755
0.00192742
0.00192742
0.00192755
0.0019292
0.00193736
0.00195955
0.00198341
0.00198509
0.00196174
0.00192833
0.00189785
0.00187048
0.00188642
0.00190541
0.00192439
0.00193757
0.00194069
0.00193779
0.00193578
0.00193526
0.00193522
0.00193522
0.00193526
0.00193578
0.00193779
0.0019407
0.00193757
0.00192438
0.0019054
0.00188641
0.00187047
0.00186736
0.00187959
0.00189407
0.00190948
0.00192338
0.00193267
0.0019364
0.00193716
0.00193729
0.00193733
0.00193733
0.00193729
0.00193716
0.0019364
0.00193267
0.00192339
0.00190948
0.00189407
0.00187958
0.00186735
0.00186738
0.00187902
0.00189259
0.00190701
0.0019205
0.00193064
0.00193582
0.00193734
0.00193769
0.00193776
0.00193776
0.00193769
0.00193734
0.00193582
0.00193064
0.00192051
0.00190701
0.00189259
0.00187901
0.00186737
0.00186781
0.00187935
0.00189272
0.00190689
0.00192016
0.0019303
0.00193568
0.00193736
0.00193776
0.00193783
0.00193783
0.00193776
0.00193736
0.00193568
0.0019303
0.00192016
0.00190689
0.00189272
0.00187934
0.00186781
0.00186829
0.0018798
0.00189309
0.00190714
0.00192029
0.00193032
0.00193568
0.00193737
0.00193777
0.00193785
0.00193785
0.00193777
0.00193737
0.00193568
0.00193033
0.00192029
0.00190714
0.00189309
0.00187979
0.00186828
0.00186877
0.00188027
0.00189349
0.00190745
0.00192048
0.00193042
0.00193571
0.00193737
0.00193777
0.00193785
0.00193785
0.00193777
0.00193737
0.00193571
0.00193042
0.00192049
0.00190745
0.00189349
0.00188026
0.00186876
0.00186927
0.00188074
0.00189391
0.00190778
0.0019207
0.00193052
0.00193574
0.00193738
0.00193776
0.00193784
0.00193784
0.00193776
0.00193738
0.00193574
0.00193053
0.0019207
0.00190778
0.0018939
0.00188074
0.00186925
0.00186981
0.00188127
0.00189437
0.00190815
0.00192096
0.00193066
0.00193578
0.00193737
0.00193773
0.0019378
0.0019378
0.00193773
0.00193737
0.00193578
0.00193066
0.00192096
0.00190815
0.00189437
0.00188126
0.0018698
0.00187045
0.00188189
0.00189493
0.00190863
0.00192132
0.00193087
0.00193584
0.00193731
0.00193761
0.00193765
0.00193765
0.00193761
0.00193732
0.00193584
0.00193088
0.00192133
0.00190863
0.00189492
0.00188187
0.00187042
0.00187112
0.00188257
0.00189559
0.00190924
0.00192184
0.0019312
0.00193592
0.00193718
0.00193734
0.0019373
0.0019373
0.00193734
0.00193718
0.00193593
0.00193121
0.00192185
0.00190924
0.00189557
0.00188253
0.00187107
0.00187171
0.0018832
0.00189628
0.00190998
0.00192251
0.00193164
0.00193601
0.00193696
0.00193692
0.00193678
0.00193678
0.00193692
0.00193696
0.00193602
0.00193165
0.00192252
0.00190998
0.00189626
0.00188315
0.00187163
0.00187201
0.00188367
0.001897
0.00191083
0.00192328
0.00193212
0.00193609
0.0019367
0.00193642
0.00193618
0.00193618
0.00193642
0.0019367
0.00193609
0.00193214
0.0019233
0.00191084
0.00189697
0.00188361
0.00187192
0.00187172
0.00188399
0.00189779
0.00191176
0.00192408
0.0019326
0.00193614
0.00193642
0.00193592
0.00193556
0.00193556
0.00193592
0.00193642
0.00193615
0.00193261
0.0019241
0.00191177
0.00189776
0.00188393
0.00187164
0.0018704
0.00188441
0.00189872
0.00191272
0.00192483
0.00193302
0.00193618
0.00193616
0.00193545
0.00193499
0.00193499
0.00193545
0.00193616
0.00193619
0.00193304
0.00192485
0.00191272
0.00189869
0.00188435
0.00187033
)
;

boundaryField
{
    defaultFaces
    {
        type            empty;
    }
}


// ************************************************************************* //
