/*--------------------------------*- C++ -*----------------------------------*\
  =========                 |
  \\      /  F ield         | OpenFOAM: The Open Source CFD Toolbox
   \\    /   O peration     | Website:  https://openfoam.org
    \\  /    A nd           | Version:  11
     \\/     M anipulation  |
\*---------------------------------------------------------------------------*/
FoamFile
{
    format      ascii;
    class       volScalarField;
    location    "0.5";
    object      k;
}
// * * * * * * * * * * * * * * * * * * * * * * * * * * * * * * * * * * * * * //

dimensions      [0 2 -2 0 0 0 0];

internalField   nonuniform List<scalar> 
400
(
0.00508934
0.00337795
0.00252931
0.00211583
0.0018936
0.00178225
0.00174495
0.00173127
0.00173003
0.00173032
0.00173032
0.00173004
0.00173127
0.00174496
0.00178229
0.0018937
0.00211604
0.0025295
0.00337777
0.00508859
0.00341814
0.00325946
0.00270605
0.00224984
0.00196772
0.00182195
0.00176937
0.00175411
0.00175223
0.00175247
0.00175247
0.00175223
0.00175412
0.00176938
0.00182199
0.00196782
0.00225
0.0027061
0.00325921
0.00341766
0.00256881
0.00273336
0.00259293
0.00230024
0.00203291
0.00186661
0.00179874
0.00178048
0.00177763
0.00177767
0.00177767
0.00177763
0.00178048
0.00179875
0.00186664
0.00203298
0.0023003
0.00259288
0.00273316
0.00256855
0.00215626
0.00228514
0.00231976
0.00221946
0.00204853
0.00190206
0.00182897
0.0018082
0.00180446
0.00180424
0.00180424
0.00180446
0.00180821
0.00182898
0.00190209
0.00204856
0.00221946
0.00231968
0.00228502
0.00215613
0.00194026
0.00200766
0.00206207
0.00206316
0.00199945
0.00191117
0.00185281
0.00183349
0.00182948
0.00182906
0.00182906
0.00182948
0.00183349
0.00185282
0.00191118
0.00199945
0.00206313
0.00206201
0.00200759
0.00194019
0.00183367
0.00186542
0.00190005
0.00192395
0.00192088
0.00189221
0.00186332
0.0018513
0.00184837
0.00184795
0.00184795
0.00184837
0.0018513
0.00186332
0.00189221
0.00192087
0.00192393
0.00190002
0.00186539
0.00183364
0.00179611
0.00181252
0.00183219
0.00185192
0.00186544
0.00186764
0.00186264
0.00185917
0.00185813
0.00185796
0.00185796
0.00185813
0.00185917
0.00186265
0.00186764
0.00186544
0.00185191
0.00183217
0.0018125
0.0017961
0.00178929
0.00180135
0.00181584
0.00183157
0.00184612
0.00185611
0.00186015
0.00186091
0.00186102
0.00186105
0.00186105
0.00186102
0.00186091
0.00186015
0.00185611
0.00184612
0.00183157
0.00181584
0.00180134
0.00178928
0.00178843
0.00179968
0.00181301
0.00182751
0.0018416
0.00185282
0.00185908
0.00186113
0.00186165
0.00186176
0.00186176
0.00186165
0.00186113
0.00185908
0.00185282
0.0018416
0.00182751
0.001813
0.00179967
0.00178842
0.00178869
0.0017998
0.00181286
0.00182704
0.00184087
0.00185216
0.0018588
0.00186114
0.00186176
0.0018619
0.0018619
0.00186176
0.00186114
0.0018588
0.00185216
0.00184087
0.00182704
0.00181286
0.00179979
0.00178868
0.00178915
0.00180022
0.0018132
0.00182724
0.00184094
0.00185213
0.00185877
0.00186115
0.00186178
0.00186192
0.00186192
0.00186178
0.00186115
0.00185878
0.00185213
0.00184094
0.00182724
0.00181319
0.00180021
0.00178914
0.00178965
0.0018007
0.00181361
0.00182757
0.00184115
0.00185223
0.00185881
0.00186115
0.00186179
0.00186193
0.00186193
0.00186179
0.00186115
0.00185881
0.00185224
0.00184116
0.00182757
0.00181361
0.0018007
0.00178964
0.00179017
0.00180121
0.00181406
0.00182794
0.0018414
0.00185237
0.00185885
0.00186116
0.00186178
0.00186192
0.00186192
0.00186178
0.00186116
0.00185885
0.00185237
0.00184141
0.00182793
0.00181406
0.0018012
0.00179016
0.00179077
0.00180179
0.00181458
0.00182836
0.00184171
0.00185254
0.00185891
0.00186115
0.00186174
0.00186186
0.00186186
0.00186174
0.00186115
0.00185891
0.00185255
0.00184171
0.00182836
0.00181457
0.00180178
0.00179075
0.00179146
0.00180247
0.0018152
0.0018289
0.00184214
0.0018528
0.00185899
0.00186109
0.00186158
0.00186167
0.00186167
0.00186159
0.00186109
0.00185899
0.00185281
0.00184214
0.0018289
0.00181519
0.00180245
0.00179143
0.00179219
0.0018032
0.00181591
0.00182958
0.00184271
0.00185318
0.00185908
0.00186094
0.00186128
0.00186128
0.00186128
0.00186128
0.00186094
0.00185909
0.00185319
0.00184272
0.00182957
0.00181589
0.00180316
0.00179214
0.00179282
0.00180387
0.00181664
0.00183034
0.0018434
0.00185364
0.00185918
0.00186072
0.00186084
0.00186074
0.00186074
0.00186084
0.00186072
0.00185919
0.00185365
0.00184342
0.00183034
0.00181662
0.00180381
0.00179274
0.00179314
0.00180436
0.00181736
0.00183119
0.00184417
0.00185412
0.00185927
0.00186045
0.00186035
0.00186013
0.00186013
0.00186035
0.00186046
0.00185928
0.00185414
0.00184419
0.00183119
0.00181733
0.00180429
0.00179304
0.00179289
0.00180468
0.00181813
0.0018321
0.00184495
0.00185459
0.00185932
0.00186018
0.00185985
0.00185952
0.00185952
0.00185985
0.00186019
0.00185933
0.00185461
0.00184497
0.0018321
0.0018181
0.00180461
0.00179279
0.00179163
0.00180508
0.00181903
0.00183301
0.00184568
0.001855
0.00185936
0.00185993
0.0018594
0.00185898
0.00185898
0.00185941
0.00185994
0.00185937
0.00185502
0.00184569
0.00183301
0.00181899
0.00180502
0.00179154
)
;

boundaryField
{
    defaultFaces
    {
        type            empty;
    }
}


// ************************************************************************* //
