/*--------------------------------*- C++ -*----------------------------------*\
  =========                 |
  \\      /  F ield         | OpenFOAM: The Open Source CFD Toolbox
   \\    /   O peration     | Website:  https://openfoam.org
    \\  /    A nd           | Version:  11
     \\/     M anipulation  |
\*---------------------------------------------------------------------------*/
FoamFile
{
    format      ascii;
    class       volScalarField;
    location    "0.5";
    object      nut;
}
// * * * * * * * * * * * * * * * * * * * * * * * * * * * * * * * * * * * * * //

dimensions      [0 2 -1 0 0 0 0];

internalField   nonuniform List<scalar> 
400
(
0.000449037
0.000298541
0.000223554
0.000186531
0.000165928
0.000154808
0.000150486
0.000148909
0.000148697
0.000148699
0.000148699
0.000148697
0.000148909
0.000150487
0.00015481
0.000165935
0.000186544
0.000223566
0.000298528
0.000448986
0.000302064
0.000288032
0.00023917
0.000198493
0.000172646
0.000158439
0.000152679
0.000150903
0.000150619
0.000150614
0.000150614
0.000150619
0.000150904
0.00015268
0.000158441
0.000172652
0.000198503
0.000239172
0.000288014
0.00030203
0.000227005
0.000241561
0.000229107
0.000202952
0.000178521
0.00016252
0.000155345
0.000153243
0.000152856
0.000152829
0.00015283
0.000152856
0.000153244
0.000155345
0.000162522
0.000178525
0.000202956
0.000229103
0.000241546
0.000226985
0.000190063
0.000201593
0.000204676
0.000195611
0.000179857
0.000165744
0.000158123
0.000155763
0.000155282
0.000155229
0.000155229
0.000155282
0.000155763
0.000158123
0.000165745
0.000179859
0.00019561
0.000204671
0.000201583
0.000190052
0.000170048
0.000176201
0.000181143
0.000181194
0.000175157
0.000166477
0.000160336
0.000158139
0.000157636
0.000157566
0.000157566
0.000157636
0.000158139
0.000160336
0.000166477
0.000175157
0.000181191
0.000181138
0.000176195
0.000170042
0.000159448
0.000162409
0.000165625
0.000167822
0.000167429
0.000164446
0.00016129
0.000159889
0.000159519
0.000159458
0.000159458
0.000159519
0.000159889
0.00016129
0.000164446
0.000167427
0.00016782
0.000165623
0.000162406
0.000159445
0.000155223
0.000156736
0.00015856
0.000160397
0.000161639
0.00016176
0.000161137
0.000160704
0.000160566
0.00016054
0.00016054
0.000160566
0.000160704
0.000161137
0.00016176
0.000161639
0.000160396
0.000158559
0.000156734
0.000155221
0.000154304
0.000155373
0.000156676
0.000158116
0.000159477
0.000160432
0.000160822
0.00016089
0.000160897
0.000160899
0.000160899
0.000160897
0.00016089
0.000160822
0.000160432
0.000159477
0.000158116
0.000156675
0.000155372
0.000154303
0.000154153
0.000155132
0.000156309
0.000157619
0.000158934
0.000160033
0.000160685
0.000160912
0.000160973
0.000160987
0.000160987
0.000160973
0.000160913
0.000160685
0.000160033
0.000158935
0.000157619
0.000156309
0.000155131
0.000154152
0.000154163
0.000155125
0.000156273
0.000157548
0.000158837
0.000159946
0.000160648
0.000160913
0.000160988
0.000161005
0.000161005
0.000160988
0.000160913
0.000160648
0.000159947
0.000158837
0.000157548
0.000156272
0.000155124
0.000154162
0.000154203
0.000155161
0.0001563
0.000157563
0.000158838
0.00015994
0.000160643
0.000160913
0.00016099
0.000161008
0.000161008
0.00016099
0.000160913
0.000160643
0.00015994
0.000158838
0.000157563
0.0001563
0.00015516
0.000154202
0.000154249
0.000155206
0.00015634
0.000157594
0.000158859
0.00015995
0.000160646
0.000160914
0.000160991
0.000161008
0.000161008
0.000160991
0.000160914
0.000160646
0.00015995
0.000158859
0.000157594
0.000156339
0.000155205
0.000154248
0.000154298
0.000155254
0.000156382
0.000157629
0.000158884
0.000159964
0.000160651
0.000160915
0.00016099
0.000161007
0.000161007
0.00016099
0.000160915
0.000160652
0.000159964
0.000158884
0.000157629
0.000156382
0.000155253
0.000154297
0.000154356
0.00015531
0.000156433
0.000157671
0.000158916
0.000159983
0.000160658
0.000160914
0.000160985
0.000161001
0.000161001
0.000160985
0.000160914
0.000160658
0.000159983
0.000158916
0.000157671
0.000156432
0.000155308
0.000154354
0.000154424
0.000155377
0.000156495
0.000157726
0.000158959
0.00016001
0.000160666
0.000160907
0.000160969
0.00016098
0.00016098
0.000160969
0.000160907
0.000160667
0.000160011
0.00015896
0.000157726
0.000156493
0.000155374
0.000154421
0.000154494
0.000155447
0.000156563
0.000157791
0.000159015
0.000160048
0.000160677
0.000160893
0.000160938
0.000160941
0.000160941
0.000160938
0.000160893
0.000160677
0.000160049
0.000159016
0.000157791
0.000156561
0.000155443
0.000154489
0.000154553
0.00015551
0.000156631
0.000157862
0.00015908
0.00016009
0.000160686
0.000160873
0.000160898
0.000160891
0.000160891
0.000160898
0.000160873
0.000160687
0.000160092
0.000159081
0.000157862
0.000156629
0.000155504
0.000154545
0.000154583
0.000155555
0.000156696
0.000157938
0.000159149
0.000160134
0.000160694
0.000160849
0.000160853
0.000160836
0.000160836
0.000160853
0.00016085
0.000160695
0.000160136
0.00015915
0.000157938
0.000156693
0.000155548
0.000154574
0.000154563
0.000155583
0.000156763
0.000158017
0.000159217
0.000160176
0.0001607
0.000160826
0.00016081
0.000160783
0.000160783
0.00016081
0.000160826
0.000160701
0.000160177
0.000159218
0.000158017
0.00015676
0.000155577
0.000154554
0.000154455
0.000155618
0.000156841
0.000158096
0.00015928
0.000160211
0.000160704
0.000160804
0.000160771
0.000160735
0.000160735
0.000160771
0.000160805
0.000160705
0.000160213
0.000159281
0.000158096
0.000156838
0.000155612
0.000154447
)
;

boundaryField
{
    defaultFaces
    {
        type            empty;
    }
}


// ************************************************************************* //
