/*--------------------------------*- C++ -*----------------------------------*\
  =========                 |
  \\      /  F ield         | OpenFOAM: The Open Source CFD Toolbox
   \\    /   O peration     | Website:  https://openfoam.org
    \\  /    A nd           | Version:  11
     \\/     M anipulation  |
\*---------------------------------------------------------------------------*/
FoamFile
{
    format      ascii;
    class       volScalarField;
    location    "6";
    object      epsilon;
}
// * * * * * * * * * * * * * * * * * * * * * * * * * * * * * * * * * * * * * //

dimensions      [0 2 -3 0 0 0 0];

internalField   nonuniform List<scalar> 
400
(
0.000145373
9.65245e-05
7.20131e-05
5.94625e-05
5.17146e-05
4.63477e-05
4.26263e-05
4.01706e-05
3.88765e-05
3.82979e-05
3.82989e-05
3.88798e-05
4.01768e-05
4.26371e-05
4.63653e-05
5.17409e-05
5.94982e-05
7.2053e-05
9.6551e-05
0.000145379
9.75946e-05
9.3101e-05
7.71511e-05
6.35468e-05
5.4202e-05
4.78505e-05
4.35634e-05
4.08853e-05
3.94588e-05
3.8826e-05
3.88271e-05
3.94622e-05
4.08918e-05
4.35748e-05
4.78691e-05
5.42293e-05
6.35815e-05
7.71846e-05
9.31192e-05
9.75965e-05
7.29336e-05
7.78276e-05
7.38119e-05
6.5062e-05
5.63274e-05
4.94779e-05
4.46794e-05
4.1749e-05
4.01758e-05
3.94796e-05
3.94807e-05
4.01794e-05
4.17559e-05
4.46912e-05
4.94967e-05
5.63534e-05
6.50917e-05
7.38363e-05
7.78394e-05
7.29356e-05
6.02293e-05
6.43019e-05
6.54945e-05
6.24692e-05
5.67497e-05
5.069e-05
4.58022e-05
4.27056e-05
4.10107e-05
4.0256e-05
4.02571e-05
4.10143e-05
4.27125e-05
4.5814e-05
5.07077e-05
5.6772e-05
6.24916e-05
6.55111e-05
6.43101e-05
6.02322e-05
5.2467e-05
5.49176e-05
5.68938e-05
5.7048e-05
5.47437e-05
5.07426e-05
4.65763e-05
4.36058e-05
4.18931e-05
4.11139e-05
4.1115e-05
4.18967e-05
4.36125e-05
4.65871e-05
5.07577e-05
5.47607e-05
5.70635e-05
5.69047e-05
5.49234e-05
5.24697e-05
4.71118e-05
4.85514e-05
5.007e-05
5.11206e-05
5.09573e-05
4.92398e-05
4.65424e-05
4.41726e-05
4.26603e-05
4.19392e-05
4.19403e-05
4.26636e-05
4.41785e-05
4.65513e-05
4.92511e-05
5.09689e-05
5.11306e-05
5.00768e-05
4.85549e-05
4.71134e-05
4.33988e-05
4.42698e-05
4.52873e-05
4.62825e-05
4.68938e-05
4.66788e-05
4.55283e-05
4.41123e-05
4.30551e-05
4.25111e-05
4.25119e-05
4.30577e-05
4.41168e-05
4.55346e-05
4.66862e-05
4.69008e-05
4.62883e-05
4.52909e-05
4.42712e-05
4.33988e-05
4.11581e-05
4.17343e-05
4.24384e-05
4.32186e-05
4.39294e-05
4.4308e-05
4.41105e-05
4.35151e-05
4.29545e-05
4.26356e-05
4.26363e-05
4.29564e-05
4.35182e-05
4.41146e-05
4.43125e-05
4.39336e-05
4.32218e-05
4.244e-05
4.17341e-05
4.11568e-05
3.98161e-05
4.02464e-05
4.07827e-05
4.14096e-05
4.2069e-05
4.2625e-05
4.28808e-05
4.27955e-05
4.2601e-05
4.24658e-05
4.24663e-05
4.26023e-05
4.27975e-05
4.28834e-05
4.26278e-05
4.20714e-05
4.14114e-05
4.0783e-05
4.02453e-05
3.9814e-05
3.89852e-05
3.93354e-05
3.97766e-05
4.03067e-05
4.09031e-05
4.14961e-05
4.19496e-05
4.21463e-05
4.21834e-05
4.21736e-05
4.21739e-05
4.21843e-05
4.21476e-05
4.19512e-05
4.14978e-05
4.09045e-05
4.03076e-05
3.97762e-05
3.93337e-05
3.89827e-05
3.84652e-05
3.87694e-05
3.91547e-05
3.96245e-05
4.01714e-05
4.07587e-05
4.12912e-05
4.16317e-05
4.18009e-05
4.1867e-05
4.18671e-05
4.18014e-05
4.16325e-05
4.12922e-05
4.07597e-05
4.01722e-05
3.96248e-05
3.91538e-05
3.87673e-05
3.84624e-05
3.81425e-05
3.84197e-05
3.87714e-05
3.92037e-05
3.97158e-05
4.02869e-05
4.0846e-05
4.12541e-05
4.14923e-05
4.16002e-05
4.16003e-05
4.14926e-05
4.12546e-05
4.08466e-05
4.02875e-05
3.97161e-05
3.92035e-05
3.87703e-05
3.84173e-05
3.81394e-05
3.79484e-05
3.82098e-05
3.85414e-05
3.89501e-05
3.94384e-05
3.99932e-05
4.05564e-05
4.09923e-05
4.12629e-05
4.13915e-05
4.13916e-05
4.12631e-05
4.09926e-05
4.05568e-05
3.99936e-05
3.94385e-05
3.89496e-05
3.85399e-05
3.82072e-05
3.79451e-05
3.78409e-05
3.80932e-05
3.84124e-05
3.88064e-05
3.92785e-05
3.9819e-05
4.03765e-05
4.08194e-05
4.1102e-05
4.1239e-05
4.1239e-05
4.11021e-05
4.08197e-05
4.03768e-05
3.98191e-05
3.92783e-05
3.88056e-05
3.84105e-05
3.80901e-05
3.78371e-05
3.77992e-05
3.80468e-05
3.83593e-05
3.87447e-05
3.92064e-05
3.97355e-05
4.02832e-05
4.0722e-05
4.10045e-05
4.11425e-05
4.11425e-05
4.10046e-05
4.07221e-05
4.02834e-05
3.97355e-05
3.9206e-05
3.87435e-05
3.83569e-05
3.8043e-05
3.77945e-05
3.7792e-05
3.80377e-05
3.83473e-05
3.87285e-05
3.91842e-05
3.97044e-05
4.02415e-05
4.06719e-05
4.09495e-05
4.10853e-05
4.10854e-05
4.09496e-05
4.06721e-05
4.02417e-05
3.97044e-05
3.91837e-05
3.87271e-05
3.83443e-05
3.8033e-05
3.77862e-05
3.77968e-05
3.80425e-05
3.83522e-05
3.87326e-05
3.91847e-05
3.96974e-05
4.02241e-05
4.0645e-05
4.09163e-05
4.10491e-05
4.10491e-05
4.09164e-05
4.06452e-05
4.02243e-05
3.96975e-05
3.91842e-05
3.87311e-05
3.83489e-05
3.8037e-05
3.77897e-05
3.78007e-05
3.80496e-05
3.83632e-05
3.87455e-05
3.91951e-05
3.97007e-05
4.02172e-05
4.06291e-05
4.08941e-05
4.10237e-05
4.10238e-05
4.08942e-05
4.06293e-05
4.02174e-05
3.97008e-05
3.91946e-05
3.8744e-05
3.83598e-05
3.80434e-05
3.77924e-05
3.77937e-05
3.80544e-05
3.83773e-05
3.87624e-05
3.92092e-05
3.9708e-05
4.02152e-05
4.06191e-05
4.08785e-05
4.10052e-05
4.10053e-05
4.08786e-05
4.06193e-05
4.02155e-05
3.97081e-05
3.92088e-05
3.87609e-05
3.83739e-05
3.8048e-05
3.77853e-05
3.77659e-05
3.80617e-05
3.83953e-05
3.87811e-05
3.92241e-05
3.97164e-05
4.02156e-05
4.06127e-05
4.08672e-05
4.09915e-05
4.09915e-05
4.08673e-05
4.06129e-05
4.02158e-05
3.97165e-05
3.92236e-05
3.87794e-05
3.83916e-05
3.80555e-05
3.77583e-05
)
;

boundaryField
{
    defaultFaces
    {
        type            empty;
    }
}


// ************************************************************************* //
