/*--------------------------------*- C++ -*----------------------------------*\
  =========                 |
  \\      /  F ield         | OpenFOAM: The Open Source CFD Toolbox
   \\    /   O peration     | Website:  https://openfoam.org
    \\  /    A nd           | Version:  11
     \\/     M anipulation  |
\*---------------------------------------------------------------------------*/
FoamFile
{
    format      ascii;
    class       volScalarField;
    location    "6";
    object      k;
}
// * * * * * * * * * * * * * * * * * * * * * * * * * * * * * * * * * * * * * //

dimensions      [0 2 -2 0 0 0 0];

internalField   nonuniform List<scalar> 
400
(
0.000880138
0.000584602
0.000436267
0.000360395
0.000313594
0.000281171
0.00025866
0.000243765
0.000235894
0.000232366
0.000232372
0.000235912
0.000243799
0.000258715
0.000281256
0.000313714
0.000360554
0.000436445
0.000584741
0.00088022
0.000591052
0.000563939
0.000467477
0.000385198
0.000328699
0.000290298
0.000264352
0.000248103
0.000239424
0.000235566
0.000235572
0.000239444
0.000248139
0.00026441
0.000290388
0.000328824
0.000385355
0.000467634
0.000564044
0.000591095
0.000441758
0.000471524
0.000447301
0.000394413
0.0003416
0.000300173
0.000271122
0.000253339
0.000243765
0.000239518
0.000239525
0.000243785
0.000253376
0.000271182
0.000300265
0.000341722
0.000394551
0.000447423
0.000471598
0.000441789
0.000364879
0.000389648
0.000396959
0.000378721
0.00034416
0.000307513
0.000277916
0.000259121
0.000248805
0.000244201
0.000244208
0.000248826
0.000259159
0.000277977
0.000307601
0.000344268
0.000378831
0.000397047
0.000389701
0.000364908
0.00031788
0.000332799
0.000344849
0.00034586
0.000331973
0.000307791
0.000282563
0.000264529
0.000254103
0.000249348
0.000249355
0.000254124
0.000264567
0.00028262
0.000307868
0.000332059
0.00034594
0.000344911
0.000332838
0.000317903
0.00028536
0.000294143
0.000303414
0.000309853
0.000308931
0.000298577
0.000282248
0.000267856
0.000258645
0.000254243
0.000254249
0.000258664
0.00026789
0.000282297
0.000298638
0.000308993
0.000309908
0.000303455
0.000294169
0.000285376
0.000262658
0.000267988
0.000274217
0.000280316
0.000284089
0.000282839
0.000275886
0.000267282
0.000260834
0.000257509
0.000257514
0.00026085
0.000267308
0.000275923
0.000282881
0.000284129
0.000280351
0.000274241
0.000268001
0.000262664
0.000248768
0.000252304
0.000256626
0.000261416
0.000265789
0.000268138
0.000266968
0.000263348
0.000259922
0.000257969
0.000257973
0.000259934
0.000263367
0.000266993
0.000268165
0.000265814
0.000261436
0.000256638
0.000252308
0.000248767
0.000240292
0.000242935
0.000246229
0.00025008
0.000254133
0.000257555
0.000259138
0.000258621
0.000257427
0.000256595
0.000256598
0.000257436
0.000258634
0.000259154
0.000257572
0.000254148
0.000250092
0.000246233
0.000242933
0.000240285
0.000234919
0.000237066
0.000239771
0.000243023
0.000246681
0.00025032
0.000253101
0.000254303
0.000254524
0.000254458
0.00025446
0.000254529
0.000254312
0.000253111
0.00025033
0.00024669
0.000243028
0.000239771
0.000237059
0.000234909
0.000231459
0.000233317
0.000235671
0.000238543
0.000241888
0.00024548
0.000248735
0.000250814
0.000251842
0.000252242
0.000252243
0.000251846
0.000250819
0.000248742
0.000245486
0.000241892
0.000238545
0.000235667
0.000233308
0.000231446
0.000229237
0.000230922
0.000233062
0.000235693
0.000238813
0.000242294
0.000245704
0.000248192
0.000249643
0.0002503
0.000250301
0.000249646
0.000248195
0.000245707
0.000242298
0.000238814
0.000235692
0.000233056
0.000230911
0.000229222
0.000227844
0.000229426
0.000231433
0.000233911
0.000236874
0.000240245
0.000243671
0.000246326
0.000247976
0.00024876
0.00024876
0.000247977
0.000246328
0.000243673
0.000240246
0.000236874
0.000233908
0.000231425
0.000229412
0.000227827
0.000227023
0.000228544
0.00023047
0.00023285
0.000235705
0.00023898
0.000242365
0.00024506
0.000246782
0.000247619
0.000247619
0.000246783
0.000245061
0.000242366
0.00023898
0.000235703
0.000232845
0.00023046
0.000228528
0.000227003
0.000226659
0.000228148
0.000230029
0.000232352
0.000235139
0.00023834
0.000241661
0.000244329
0.000246051
0.000246893
0.000246893
0.000246051
0.000244329
0.000241661
0.000238339
0.000235136
0.000232345
0.000230016
0.000228128
0.000226635
0.000226551
0.000228027
0.000229888
0.000232184
0.000234933
0.000238077
0.000241333
0.000243949
0.000245641
0.000246471
0.000246471
0.000245642
0.00024395
0.000241333
0.000238076
0.000234929
0.000232176
0.000229873
0.000228003
0.000226522
0.000226544
0.00022802
0.000229881
0.000232172
0.000234898
0.000237997
0.000241188
0.000243747
0.000245402
0.000246213
0.000246213
0.000245402
0.000243748
0.000241188
0.000237995
0.000234894
0.000232163
0.000229864
0.000227992
0.000226509
0.000226549
0.000228044
0.00022993
0.000232231
0.000234942
0.000237998
0.000241128
0.000243633
0.00024525
0.000246042
0.000246042
0.00024525
0.000243633
0.000241128
0.000237997
0.000234938
0.000232222
0.000229911
0.000228013
0.000226509
0.000226502
0.000228066
0.000230008
0.000232326
0.000235019
0.000238034
0.000241108
0.000243565
0.000245148
0.000245923
0.000245923
0.000245148
0.000243565
0.000241108
0.000238033
0.000235015
0.000232316
0.000229989
0.000228035
0.000226461
0.000226335
0.000228109
0.000230113
0.000232435
0.000235106
0.000238082
0.000241108
0.000243524
0.000245078
0.000245838
0.000245838
0.000245078
0.000243525
0.000241108
0.000238081
0.000235102
0.000232425
0.000230094
0.000228078
0.000226297
)
;

boundaryField
{
    defaultFaces
    {
        type            empty;
    }
}


// ************************************************************************* //
