/*--------------------------------*- C++ -*----------------------------------*\
  =========                 |
  \\      /  F ield         | OpenFOAM: The Open Source CFD Toolbox
   \\    /   O peration     | Website:  https://openfoam.org
    \\  /    A nd           | Version:  11
     \\/     M anipulation  |
\*---------------------------------------------------------------------------*/
FoamFile
{
    format      ascii;
    class       volScalarField;
    location    "6";
    object      nut;
}
// * * * * * * * * * * * * * * * * * * * * * * * * * * * * * * * * * * * * * //

dimensions      [0 2 -1 0 0 0 0];

internalField   nonuniform List<scalar> 
400
(
0.000479579
0.000318659
0.000237868
0.000196588
0.000171145
0.000153516
0.000141261
0.00013313
0.000128821
0.000126886
0.000126889
0.000128831
0.000133147
0.000141286
0.000153551
0.00017119
0.000196643
0.00023793
0.000318723
0.000479649
0.000322157
0.000307434
0.00025493
0.000210144
0.0001794
0.000158505
0.000144373
0.000135501
0.000130748
0.00012863
0.000128634
0.000130758
0.000135518
0.000144399
0.000158542
0.000179447
0.0002102
0.00025499
0.000307489
0.000322198
0.000240815
0.000257109
0.000243959
0.000215187
0.000186448
0.000163898
0.000148069
0.000138357
0.000133113
0.000130782
0.000130785
0.000133124
0.000138375
0.000148096
0.000163936
0.000186495
0.000215241
0.000244011
0.00025715
0.000240843
0.000198945
0.000212502
0.000216535
0.00020664
0.000187845
0.000167899
0.000151769
0.000141502
0.000135851
0.000133324
0.000133327
0.000135862
0.000141521
0.000151797
0.000167936
0.00018789
0.000206686
0.000216576
0.000212533
0.000198966
0.000173333
0.000181508
0.000188121
0.000188713
0.000181182
0.000168028
0.000154279
0.000144426
0.000138714
0.000136103
0.000136106
0.000138724
0.000144445
0.000154306
0.000168062
0.00018122
0.00018875
0.000188151
0.000181531
0.00017335
0.000155561
0.000160383
0.000165477
0.000169027
0.000168562
0.000162945
0.000154048
0.000146182
0.000141132
0.000138714
0.000138717
0.000141143
0.000146199
0.000154072
0.000162973
0.000168591
0.000169054
0.000165499
0.000160399
0.000155573
0.000143069
0.000146004
0.000149435
0.0001528
0.000154894
0.000154242
0.00015046
0.000145754
0.000142216
0.000140387
0.00014039
0.000142224
0.000145768
0.000150479
0.000154263
0.000154915
0.000152818
0.00014945
0.000146014
0.000143076
0.000135325
0.000137277
0.000139664
0.00014231
0.000144731
0.000146042
0.000145418
0.000143438
0.000141554
0.000140477
0.000140479
0.00014156
0.000143448
0.000145432
0.000146057
0.000144744
0.000142322
0.000139672
0.000137282
0.000135327
0.000130516
0.000131976
0.000133796
0.000135925
0.000138166
0.000140061
0.000140942
0.000140661
0.000140001
0.00013954
0.000139542
0.000140006
0.000140668
0.000140951
0.000140071
0.000138175
0.000135932
0.0001338
0.000131977
0.000130515
0.000127403
0.000128587
0.000130079
0.000131874
0.000133893
0.000135902
0.000137436
0.000138098
0.000138216
0.000138176
0.000138178
0.000138219
0.000138103
0.000137442
0.000135908
0.000133898
0.000131877
0.000130081
0.000128586
0.0001274
0.00012535
0.000126371
0.000127665
0.000129244
0.000131085
0.000133062
0.000134853
0.000135994
0.000136557
0.000136775
0.000136775
0.000136559
0.000135997
0.000134856
0.000133065
0.000131087
0.000129246
0.000127664
0.000126367
0.000125345
0.000123995
0.000124917
0.000126088
0.000127529
0.000129239
0.000131149
0.00013302
0.000134385
0.000135181
0.000135541
0.000135541
0.000135182
0.000134387
0.000133022
0.000131151
0.00012924
0.000127529
0.000126086
0.000124912
0.000123989
0.000123118
0.00012398
0.000125074
0.000126425
0.000128044
0.000129887
0.000131763
0.000133218
0.000134122
0.000134553
0.000134553
0.000134123
0.000133219
0.000131763
0.000129887
0.000128043
0.000126424
0.00012507
0.000123974
0.000123111
0.00012258
0.000123405
0.000124451
0.000125745
0.000127299
0.000129085
0.000130935
0.00013241
0.000133355
0.000133814
0.000133814
0.000133355
0.000132411
0.000130935
0.000129085
0.000127298
0.000125742
0.000124446
0.000123398
0.000122572
0.000122322
0.000123128
0.000124147
0.000125407
0.000126922
0.000128664
0.000130476
0.000131936
0.00013288
0.000133343
0.000133343
0.000132881
0.000131936
0.000130476
0.000128663
0.000126919
0.000125403
0.000124141
0.000123119
0.000122312
0.000122229
0.000123027
0.000124035
0.000125279
0.000126771
0.000128481
0.000130257
0.000131688
0.000132617
0.000133072
0.000133072
0.000132617
0.000131688
0.000130256
0.00012848
0.000126768
0.000125274
0.000124027
0.000123016
0.000122217
0.000122206
0.000123003
0.000124011
0.000125252
0.000126732
0.000128417
0.000130157
0.000131557
0.000132465
0.000132911
0.000132911
0.000132465
0.000131557
0.000130156
0.000128415
0.000126729
0.000125247
0.000124003
0.000122992
0.000122192
0.000122199
0.000123007
0.000124027
0.000125274
0.000126746
0.000128407
0.000130115
0.000131485
0.000132373
0.000132809
0.000132809
0.000132373
0.000131485
0.000130114
0.000128406
0.000126743
0.000125269
0.000124019
0.000122994
0.000122183
0.00012217
0.000123015
0.000124066
0.000125322
0.000126783
0.000128423
0.0001301
0.000131444
0.000132314
0.00013274
0.00013274
0.000132314
0.000131444
0.000130099
0.000128421
0.00012678
0.000125316
0.000124057
0.000123002
0.000122153
0.00012208
0.000123038
0.000124122
0.000125379
0.000126829
0.000128447
0.000130098
0.000131421
0.000132274
0.000132693
0.000132693
0.000132274
0.000131421
0.000130098
0.000128446
0.000126826
0.000125374
0.000124113
0.000123025
0.000122064
)
;

boundaryField
{
    defaultFaces
    {
        type            empty;
    }
}


// ************************************************************************* //
