/*--------------------------------*- C++ -*----------------------------------*\
  =========                 |
  \\      /  F ield         | OpenFOAM: The Open Source CFD Toolbox
   \\    /   O peration     | Website:  https://openfoam.org
    \\  /    A nd           | Version:  11
     \\/     M anipulation  |
\*---------------------------------------------------------------------------*/
FoamFile
{
    format      ascii;
    class       volScalarField;
    location    "3";
    object      epsilon;
}
// * * * * * * * * * * * * * * * * * * * * * * * * * * * * * * * * * * * * * //

dimensions      [0 2 -3 0 0 0 0];

internalField   nonuniform List<scalar> 
400
(
0.000498332
0.000330707
0.000246665
0.000203744
0.000177414
0.000159436
0.000147349
0.000139704
0.000135904
0.000134277
0.000134278
0.000135909
0.000139713
0.000147366
0.000159466
0.000177462
0.000203815
0.000246743
0.000330747
0.000498318
0.000334459
0.000319047
0.000264342
0.000217761
0.000185921
0.000164547
0.000150522
0.000142143
0.000137922
0.00013613
0.000136131
0.000137926
0.000142152
0.000150541
0.000164579
0.000185971
0.000217828
0.000264402
0.00031907
0.00033445
0.000250051
0.000266783
0.000252993
0.000223026
0.000193234
0.00017012
0.000154332
0.00014511
0.000140418
0.000138431
0.000138433
0.000140423
0.00014512
0.000154351
0.000170152
0.000193282
0.00022308
0.000253034
0.000266801
0.000250053
0.000206838
0.000220677
0.000224689
0.000214304
0.000194801
0.000174345
0.000158223
0.000148438
0.000143353
0.000141185
0.000141186
0.000143358
0.000148448
0.000158242
0.000174376
0.00019484
0.000214343
0.000224717
0.000220693
0.000206847
0.000180807
0.000189026
0.000195647
0.000196087
0.000188219
0.000174751
0.000161045
0.000151668
0.000146524
0.00014428
0.000144281
0.000146529
0.000151678
0.000161062
0.000174776
0.000188248
0.000196113
0.000195666
0.000189039
0.000180817
0.000163361
0.000168078
0.000173067
0.000176493
0.000175866
0.000170122
0.000161348
0.000153953
0.000149454
0.000147391
0.000147393
0.000149458
0.000153962
0.000161362
0.00017014
0.000175885
0.000176509
0.000173079
0.000168087
0.000163368
0.000151955
0.000154718
0.000157961
0.000161136
0.000163067
0.000162343
0.000158714
0.000154438
0.000151388
0.000149874
0.000149875
0.000151391
0.000154445
0.000158723
0.000162354
0.000163078
0.000161145
0.000157967
0.000154722
0.000151958
0.000145797
0.000147577
0.000149764
0.000152198
0.000154425
0.00015563
0.000155099
0.00015344
0.000151929
0.000151095
0.000151096
0.000151931
0.000153444
0.000155104
0.000155636
0.00015443
0.000152202
0.000149767
0.000147578
0.000145797
0.000142611
0.000143939
0.000145598
0.000147544
0.000149602
0.000151366
0.000152258
0.000152164
0.000151745
0.000151445
0.000151445
0.000151746
0.000152166
0.000152261
0.000151369
0.000149605
0.000147546
0.000145599
0.000143938
0.00014261
0.000140976
0.000142081
0.000143473
0.000145144
0.000147025
0.000148911
0.000150399
0.000151127
0.000151362
0.000151407
0.000151407
0.000151363
0.000151128
0.0001504
0.000148913
0.000147026
0.000145144
0.000143473
0.00014208
0.000140974
0.000140167
0.000141163
0.000142419
0.000143942
0.000145705
0.000147592
0.00014931
0.000150432
0.000151015
0.000151255
0.000151255
0.000151015
0.000150433
0.000149311
0.000147593
0.000145705
0.000143942
0.000142418
0.000141161
0.000140165
0.0001398
0.000140742
0.00014193
0.000143376
0.000145068
0.00014693
0.000148726
0.00015002
0.000150769
0.000151108
0.000151108
0.00015077
0.00015002
0.000148727
0.000146931
0.000145068
0.000143375
0.000141929
0.00014074
0.000139797
0.000139668
0.000140585
0.000141739
0.000143144
0.000144795
0.00014663
0.000148441
0.000149797
0.000150615
0.000150997
0.000150997
0.000150616
0.000149797
0.000148442
0.00014663
0.000144795
0.000143143
0.000141737
0.000140583
0.000139665
0.000139664
0.00014057
0.000141706
0.000143088
0.000144713
0.000146523
0.000148321
0.000149684
0.00015052
0.000150913
0.000150913
0.00015052
0.000149685
0.000148321
0.000146522
0.000144712
0.000143087
0.000141704
0.000140567
0.00013966
0.000139727
0.000140629
0.000141757
0.000143126
0.000144733
0.000146518
0.000148288
0.000149631
0.000150454
0.000150843
0.000150843
0.000150454
0.000149631
0.000148289
0.000146518
0.000144732
0.000143125
0.000141754
0.000140625
0.000139722
0.000139803
0.000140705
0.00014183
0.000143195
0.00014479
0.000146553
0.000148289
0.000149599
0.0001504
0.000150777
0.000150777
0.0001504
0.000149599
0.000148289
0.000146553
0.000144789
0.000143193
0.000141826
0.000140699
0.000139796
0.000139866
0.000140771
0.000141901
0.000143269
0.000144857
0.000146598
0.000148298
0.000149573
0.000150349
0.000150714
0.000150714
0.000150349
0.000149574
0.000148299
0.000146598
0.000144856
0.000143267
0.000141897
0.000140764
0.000139857
0.000139899
0.000140818
0.000141966
0.000143344
0.000144926
0.000146643
0.000148308
0.00014955
0.000150302
0.000150655
0.000150655
0.000150302
0.00014955
0.000148309
0.000146643
0.000144925
0.000143342
0.000141961
0.00014081
0.000139888
0.000139883
0.000140847
0.00014203
0.000143419
0.000144992
0.000146685
0.000148316
0.000149528
0.00015026
0.000150601
0.000150602
0.00015026
0.000149529
0.000148316
0.000146685
0.000144991
0.000143417
0.000142025
0.000140838
0.000139873
0.000139786
0.000140879
0.000142101
0.000143493
0.000145051
0.000146721
0.000148322
0.000149509
0.000150223
0.000150556
0.000150556
0.000150223
0.00014951
0.000148323
0.000146721
0.000145051
0.00014349
0.000142096
0.000140871
0.000139777
)
;

boundaryField
{
    defaultFaces
    {
        type            empty;
    }
}


// ************************************************************************* //
