/*--------------------------------*- C++ -*----------------------------------*\
  =========                 |
  \\      /  F ield         | OpenFOAM: The Open Source CFD Toolbox
   \\    /   O peration     | Website:  https://openfoam.org
    \\  /    A nd           | Version:  11
     \\/     M anipulation  |
\*---------------------------------------------------------------------------*/
FoamFile
{
    format      ascii;
    class       volScalarField;
    location    "3";
    object      k;
}
// * * * * * * * * * * * * * * * * * * * * * * * * * * * * * * * * * * * * * //

dimensions      [0 2 -2 0 0 0 0];

internalField   nonuniform List<scalar> 
400
(
0.00164034
0.0010892
0.000812644
0.000671367
0.000584544
0.00052494
0.000484386
0.000458303
0.000445036
0.000439252
0.000439256
0.000445051
0.000458332
0.000484437
0.000525026
0.000584678
0.000671559
0.000812855
0.00108933
0.00164037
0.0011015
0.00105087
0.00087097
0.000717656
0.000612671
0.000541872
0.000494911
0.000466364
0.000451667
0.000445317
0.000445322
0.000451683
0.000466396
0.000494966
0.000541964
0.000612812
0.000717839
0.000871143
0.00105096
0.00110151
0.000823674
0.000878937
0.000833643
0.000735034
0.000636823
0.000560302
0.000507525
0.000476166
0.000459877
0.000452858
0.000452863
0.000459894
0.000476199
0.000507582
0.000560396
0.000636957
0.000735189
0.000833771
0.000879007
0.000823701
0.000681352
0.000727101
0.000740422
0.000706271
0.000641958
0.00057423
0.000520369
0.000487139
0.000469526
0.000461889
0.000461894
0.000469544
0.000487173
0.000520427
0.00057432
0.000642073
0.000706388
0.000740512
0.000727158
0.00068139
0.000595401
0.000622631
0.000644571
0.000646085
0.000620114
0.000575448
0.000529598
0.000497741
0.000479934
0.000472039
0.000472045
0.000479951
0.000497773
0.000529653
0.000575524
0.000620202
0.000646167
0.000644635
0.000622678
0.000595437
0.000537411
0.000553102
0.000569683
0.000581071
0.000578997
0.000559842
0.000530343
0.000505108
0.000489483
0.000482214
0.000482219
0.000489499
0.000505137
0.000530388
0.0005599
0.000579057
0.000581124
0.000569725
0.000553134
0.000537436
0.000498936
0.000508174
0.000519006
0.000529596
0.000536012
0.000533497
0.000521105
0.000506325
0.000495614
0.000490229
0.000490233
0.000495626
0.000506346
0.000521136
0.000533533
0.000536048
0.000529627
0.000519029
0.000508191
0.000498949
0.000477552
0.000483525
0.000490855
0.000498999
0.000506423
0.000510366
0.000508362
0.000502431
0.000496992
0.000493961
0.000493964
0.000497
0.000502445
0.00050838
0.000510386
0.000506442
0.000499014
0.000490866
0.000483531
0.000477556
0.000466051
0.000470496
0.000476053
0.000482563
0.000489434
0.00049528
0.000498117
0.00049756
0.00049591
0.000494751
0.000494752
0.000495915
0.000497568
0.000498128
0.000495291
0.000489444
0.00048257
0.000476056
0.000470496
0.000466049
0.000459846
0.000463524
0.00046816
0.00047373
0.000480004
0.000486282
0.00049119
0.000493515
0.000494182
0.000494257
0.000494258
0.000494185
0.00049352
0.000491196
0.000486287
0.000480008
0.000473732
0.00046816
0.00046352
0.000459841
0.000456579
0.000459867
0.000464023
0.000469075
0.000474937
0.000481228
0.000486965
0.000490708
0.000492642
0.000493433
0.000493433
0.000492643
0.000490711
0.000486968
0.00048123
0.000474939
0.000469074
0.00046402
0.000459861
0.000456572
0.000454958
0.000458051
0.000461959
0.000466731
0.000472342
0.000478551
0.000484585
0.00048897
0.000491531
0.000492695
0.000492695
0.000491532
0.000488971
0.000484586
0.000478552
0.000472342
0.000466729
0.000461955
0.000458044
0.00045495
0.000454263
0.000457261
0.000461041
0.000465663
0.000471124
0.000477243
0.000483348
0.000487983
0.000490817
0.000492151
0.000492151
0.000490818
0.000487984
0.000483349
0.000477242
0.000471123
0.000465659
0.000461035
0.000457253
0.000454253
0.000454093
0.000457047
0.000460761
0.000465299
0.000470665
0.000476698
0.000482771
0.000487457
0.000490373
0.000491763
0.000491763
0.000490373
0.000487458
0.000482771
0.000476697
0.000470662
0.000465294
0.000460753
0.000457037
0.000454081
0.000454222
0.000457158
0.00046084
0.000465333
0.000470637
0.000476589
0.000482576
0.000487203
0.000490092
0.000491473
0.000491473
0.000490092
0.000487204
0.000482576
0.000476588
0.000470634
0.000465327
0.00046083
0.000457144
0.000454206
0.000454432
0.000457366
0.000461039
0.000465514
0.00047078
0.000476659
0.000482538
0.000487064
0.000489884
0.000491231
0.000491232
0.000489885
0.000487065
0.000482539
0.000476658
0.000470777
0.000465507
0.000461026
0.000457349
0.000454411
0.00045462
0.000457565
0.000461253
0.000465737
0.00047098
0.000476786
0.00048255
0.000486965
0.000489706
0.000491013
0.000491013
0.000489707
0.000486966
0.000482551
0.000476786
0.000470977
0.00046573
0.000461239
0.000457543
0.000454592
0.000454721
0.000457709
0.000461455
0.000465972
0.000471195
0.000476925
0.000482574
0.000486881
0.000489546
0.000490814
0.000490815
0.000489547
0.000486882
0.000482575
0.000476925
0.000471193
0.000465965
0.000461441
0.000457684
0.000454687
0.000454666
0.000457799
0.00046166
0.000466213
0.000471406
0.000477057
0.000482597
0.000486809
0.000489406
0.000490639
0.00049064
0.000489407
0.00048681
0.000482598
0.000477057
0.000471404
0.000466207
0.000461645
0.000457774
0.000454633
0.000454351
0.000457903
0.00046189
0.000466451
0.000471599
0.000477173
0.000482616
0.000486747
0.000489286
0.00049049
0.000490491
0.000489287
0.000486748
0.000482617
0.000477173
0.000471597
0.000466444
0.000461875
0.000457879
0.000454321
)
;

boundaryField
{
    defaultFaces
    {
        type            empty;
    }
}


// ************************************************************************* //
