/*--------------------------------*- C++ -*----------------------------------*\
  =========                 |
  \\      /  F ield         | OpenFOAM: The Open Source CFD Toolbox
   \\    /   O peration     | Website:  https://openfoam.org
    \\  /    A nd           | Version:  11
     \\/     M anipulation  |
\*---------------------------------------------------------------------------*/
FoamFile
{
    format      ascii;
    class       volScalarField;
    location    "3";
    object      nut;
}
// * * * * * * * * * * * * * * * * * * * * * * * * * * * * * * * * * * * * * //

dimensions      [0 2 -1 0 0 0 0];

internalField   nonuniform List<scalar> 
400
(
0.000485949
0.000322857
0.000240954
0.000199104
0.000173336
0.000155552
0.000143311
0.000135313
0.000131159
0.000129321
0.000129322
0.000131164
0.000135321
0.000143325
0.000155574
0.000173368
0.000199148
0.000241004
0.000322898
0.000485979
0.000326488
0.000311521
0.000258275
0.00021286
0.000181706
0.0001606
0.000146452
0.000137711
0.000133121
0.000131108
0.000131109
0.000133126
0.00013772
0.000146467
0.000160623
0.00018174
0.000212904
0.000258319
0.000311553
0.000326505
0.000244188
0.000260615
0.000247226
0.000218023
0.000188884
0.000166085
0.00015021
0.000140625
0.000135551
0.000133331
0.000133333
0.000135556
0.000140634
0.000150226
0.00016611
0.000188918
0.000218062
0.000247261
0.000260639
0.000244202
0.000202002
0.000215613
0.000219593
0.000209486
0.000190399
0.000170218
0.000154027
0.000143881
0.000138406
0.000135997
0.000135999
0.000138412
0.000143891
0.000154042
0.000170241
0.000190429
0.000209517
0.00021962
0.000215632
0.000202015
0.00017646
0.00018458
0.000191122
0.000191591
0.000183874
0.000170543
0.000156743
0.000147013
0.000141481
0.000138993
0.000138995
0.000141486
0.000147022
0.000156758
0.000170564
0.000183898
0.000191614
0.000191141
0.000184594
0.000176472
0.000159113
0.00016381
0.00016877
0.000172177
0.000171559
0.000165812
0.000156889
0.00014915
0.000144282
0.000141988
0.000141989
0.000144286
0.000149158
0.000156902
0.000165828
0.000171576
0.000172193
0.000168783
0.00016382
0.000159122
0.000147441
0.00015022
0.000153475
0.000156653
0.000158571
0.000157788
0.000153985
0.000149398
0.000146029
0.000144316
0.000144317
0.000146033
0.000149405
0.000153994
0.000157799
0.000158582
0.000156663
0.000153483
0.000150226
0.000147445
0.000140778
0.000142581
0.000144791
0.000147243
0.00014947
0.00015063
0.000149961
0.000148067
0.000146319
0.000145337
0.000145338
0.000146322
0.000148071
0.000149967
0.000150637
0.000149476
0.000147248
0.000144795
0.000142583
0.00014078
0.000137074
0.000138413
0.000140086
0.000142046
0.00014411
0.000145853
0.000146664
0.000146427
0.000145859
0.000145466
0.000145467
0.000145861
0.000146429
0.000146668
0.000145857
0.000144113
0.000142048
0.000140088
0.000138413
0.000137074
0.000134997
0.000136098
0.000137487
0.000139157
0.000141039
0.000142919
0.000144377
0.000145044
0.000145211
0.000145212
0.000145213
0.000145212
0.000145046
0.000144379
0.000142921
0.000141041
0.000139158
0.000137487
0.000136097
0.000134995
0.000133853
0.00013483
0.000136067
0.000137575
0.000139328
0.000141215
0.000142939
0.000144062
0.000144639
0.000144873
0.000144873
0.000144639
0.000144063
0.00014294
0.000141216
0.000139329
0.000137575
0.000136067
0.000134828
0.000133851
0.000133254
0.000134167
0.000135324
0.000136741
0.000138415
0.000140277
0.0001421
0.000143436
0.000144222
0.000144581
0.000144581
0.000144222
0.000143437
0.000142101
0.000140278
0.000138415
0.000136741
0.000135323
0.000134165
0.000133251
0.000132972
0.000133854
0.000134968
0.000136336
0.000137962
0.000139797
0.000141647
0.00014307
0.00014395
0.000144368
0.000144368
0.000143951
0.00014307
0.000141647
0.000139797
0.000137962
0.000136335
0.000134967
0.000133851
0.000132969
0.000132877
0.000133743
0.000134836
0.000136176
0.000137771
0.00013958
0.000141424
0.000142869
0.000143781
0.00014422
0.00014422
0.000143781
0.000142869
0.000141424
0.00013958
0.000137771
0.000136175
0.000134833
0.00013374
0.000132873
0.000132891
0.000133752
0.000134834
0.00013616
0.000137736
0.000139521
0.00014134
0.000142772
0.000143679
0.000144118
0.000144118
0.000143679
0.000142772
0.00014134
0.00013952
0.000137735
0.000136158
0.000134831
0.000133748
0.000132887
0.000132943
0.000133802
0.000134881
0.000136201
0.000137766
0.000139529
0.000141318
0.00014272
0.000143609
0.000144039
0.000144039
0.000143609
0.000142721
0.000141318
0.000139528
0.000137765
0.000136199
0.000134877
0.000133797
0.000132937
0.000132992
0.000133855
0.000134938
0.000136261
0.000137818
0.000139561
0.000141316
0.000142687
0.000143553
0.000143971
0.000143971
0.000143553
0.000142687
0.000141316
0.00013956
0.000137818
0.000136259
0.000134934
0.000133849
0.000132985
0.00013302
0.000133895
0.000134995
0.000136327
0.000137879
0.000139599
0.000141321
0.00014266
0.000143504
0.000143911
0.000143911
0.000143505
0.00014266
0.000141321
0.000139599
0.000137878
0.000136326
0.000134991
0.000133888
0.000133011
0.000133003
0.00013392
0.000135054
0.000136397
0.00013794
0.000139637
0.000141327
0.000142638
0.000143463
0.000143859
0.000143859
0.000143463
0.000142638
0.000141327
0.000139636
0.000137939
0.000136395
0.00013505
0.000133913
0.000132994
0.000132911
0.00013395
0.000135121
0.000136466
0.000137996
0.00013967
0.000141332
0.00014262
0.000143427
0.000143815
0.000143816
0.000143428
0.00014262
0.000141332
0.00013967
0.000137995
0.000136464
0.000135117
0.000133944
0.000132902
)
;

boundaryField
{
    defaultFaces
    {
        type            empty;
    }
}


// ************************************************************************* //
