/*--------------------------------*- C++ -*----------------------------------*\
  =========                 |
  \\      /  F ield         | OpenFOAM: The Open Source CFD Toolbox
   \\    /   O peration     | Website:  https://openfoam.org
    \\  /    A nd           | Version:  11
     \\/     M anipulation  |
\*---------------------------------------------------------------------------*/
FoamFile
{
    format      ascii;
    class       volScalarField;
    location    "8";
    object      epsilon;
}
// * * * * * * * * * * * * * * * * * * * * * * * * * * * * * * * * * * * * * //

dimensions      [0 2 -3 0 0 0 0];

internalField   nonuniform List<scalar> 
400
(
8.45693e-05
5.61646e-05
4.19153e-05
3.46228e-05
3.01232e-05
2.70064e-05
2.48428e-05
2.34106e-05
2.26532e-05
2.23137e-05
2.23144e-05
2.26555e-05
2.34147e-05
2.48493e-05
2.70164e-05
3.01374e-05
3.46417e-05
4.19367e-05
5.61813e-05
8.45796e-05
5.67807e-05
5.41693e-05
4.48989e-05
3.69943e-05
3.15671e-05
2.78787e-05
2.53869e-05
2.38258e-05
2.29915e-05
2.26204e-05
2.26211e-05
2.29938e-05
2.38301e-05
2.53938e-05
2.78892e-05
3.15818e-05
3.7013e-05
4.49177e-05
5.41822e-05
5.67866e-05
4.24327e-05
4.52826e-05
4.29523e-05
3.78707e-05
3.27986e-05
2.88216e-05
2.60331e-05
2.4326e-05
2.34064e-05
2.29983e-05
2.29991e-05
2.34088e-05
2.43304e-05
2.60403e-05
2.88323e-05
3.2813e-05
3.78872e-05
4.29669e-05
4.52918e-05
4.24373e-05
3.50315e-05
3.74067e-05
3.8107e-05
3.63549e-05
3.30366e-05
2.95194e-05
2.66798e-05
2.48764e-05
2.38863e-05
2.34442e-05
2.3445e-05
2.38888e-05
2.4881e-05
2.66869e-05
2.95297e-05
3.30493e-05
3.6368e-05
3.81176e-05
3.74136e-05
3.50359e-05
3.04938e-05
3.19283e-05
3.30872e-05
3.31864e-05
3.18554e-05
2.95362e-05
2.71168e-05
2.53874e-05
2.43871e-05
2.39308e-05
2.39316e-05
2.43895e-05
2.53918e-05
2.71236e-05
2.95452e-05
3.18656e-05
3.3196e-05
3.30948e-05
3.19335e-05
3.04976e-05
2.73394e-05
2.81879e-05
2.90835e-05
2.97072e-05
2.96241e-05
2.86349e-05
2.70711e-05
2.56917e-05
2.48084e-05
2.43861e-05
2.43868e-05
2.48107e-05
2.56957e-05
2.70769e-05
2.86421e-05
2.96316e-05
2.97139e-05
2.90887e-05
2.81916e-05
2.73422e-05
2.51176e-05
2.56362e-05
2.6242e-05
2.68361e-05
2.72069e-05
2.70947e-05
2.6433e-05
2.561e-05
2.49923e-05
2.46734e-05
2.4674e-05
2.49942e-05
2.56132e-05
2.64373e-05
2.70997e-05
2.72118e-05
2.68405e-05
2.62453e-05
2.56384e-05
2.51191e-05
2.37361e-05
2.40825e-05
2.45058e-05
2.49753e-05
2.54054e-05
2.56408e-05
2.55362e-05
2.51929e-05
2.48658e-05
2.46788e-05
2.46792e-05
2.48672e-05
2.51953e-05
2.55393e-05
2.56441e-05
2.54086e-05
2.4978e-05
2.45077e-05
2.40836e-05
2.37366e-05
2.28754e-05
2.31353e-05
2.34592e-05
2.3838e-05
2.42372e-05
2.45761e-05
2.47366e-05
2.46922e-05
2.45798e-05
2.45007e-05
2.4501e-05
2.45808e-05
2.46938e-05
2.47386e-05
2.45782e-05
2.42392e-05
2.38396e-05
2.34601e-05
2.31356e-05
2.28752e-05
2.23157e-05
2.25266e-05
2.27925e-05
2.31121e-05
2.34721e-05
2.38307e-05
2.41059e-05
2.42267e-05
2.42504e-05
2.42451e-05
2.42454e-05
2.42511e-05
2.42277e-05
2.41072e-05
2.3832e-05
2.34732e-05
2.3113e-05
2.27928e-05
2.25263e-05
2.2315e-05
2.19441e-05
2.21257e-05
2.2356e-05
2.26371e-05
2.29648e-05
2.33169e-05
2.36363e-05
2.38406e-05
2.39419e-05
2.39813e-05
2.39815e-05
2.39423e-05
2.38413e-05
2.36371e-05
2.33176e-05
2.29654e-05
2.26375e-05
2.23559e-05
2.21251e-05
2.19431e-05
2.16967e-05
2.18603e-05
2.20681e-05
2.23239e-05
2.26275e-05
2.29666e-05
2.32987e-05
2.35413e-05
2.36827e-05
2.37467e-05
2.37468e-05
2.3683e-05
2.35417e-05
2.32992e-05
2.29669e-05
2.26277e-05
2.23239e-05
2.20677e-05
2.18593e-05
2.16954e-05
2.15348e-05
2.16871e-05
2.18805e-05
2.21196e-05
2.24058e-05
2.27318e-05
2.30634e-05
2.33206e-05
2.34804e-05
2.35563e-05
2.35564e-05
2.34805e-05
2.33208e-05
2.30636e-05
2.27319e-05
2.24058e-05
2.21193e-05
2.18798e-05
2.16859e-05
2.15333e-05
2.14339e-05
2.15792e-05
2.17635e-05
2.19914e-05
2.22653e-05
2.25799e-05
2.29056e-05
2.31653e-05
2.33313e-05
2.34119e-05
2.3412e-05
2.33314e-05
2.31653e-05
2.29056e-05
2.25798e-05
2.2265e-05
2.19909e-05
2.17625e-05
2.15778e-05
2.14321e-05
2.13845e-05
2.1526e-05
2.1705e-05
2.19263e-05
2.21923e-05
2.24983e-05
2.28165e-05
2.30726e-05
2.32381e-05
2.33191e-05
2.33191e-05
2.32381e-05
2.30726e-05
2.28165e-05
2.24981e-05
2.21919e-05
2.19256e-05
2.17037e-05
2.15242e-05
2.13824e-05
2.13662e-05
2.1506e-05
2.16825e-05
2.19006e-05
2.21621e-05
2.2462e-05
2.27731e-05
2.30238e-05
2.31861e-05
2.32658e-05
2.32658e-05
2.31861e-05
2.30237e-05
2.27731e-05
2.24618e-05
2.21617e-05
2.18998e-05
2.16811e-05
2.15038e-05
2.13635e-05
2.13614e-05
2.15009e-05
2.16771e-05
2.18944e-05
2.21534e-05
2.24484e-05
2.27531e-05
2.2998e-05
2.31566e-05
2.32345e-05
2.32345e-05
2.31566e-05
2.2998e-05
2.2753e-05
2.24482e-05
2.21529e-05
2.18934e-05
2.16755e-05
2.14983e-05
2.13582e-05
2.13598e-05
2.1501e-05
2.16794e-05
2.18975e-05
2.21549e-05
2.24457e-05
2.27443e-05
2.2984e-05
2.31389e-05
2.32149e-05
2.32149e-05
2.31389e-05
2.2984e-05
2.27443e-05
2.24455e-05
2.21544e-05
2.18966e-05
2.16777e-05
2.14981e-05
2.13561e-05
2.13544e-05
2.15021e-05
2.16857e-05
2.19053e-05
2.2161e-05
2.24478e-05
2.27412e-05
2.29762e-05
2.31279e-05
2.32023e-05
2.32023e-05
2.31279e-05
2.29762e-05
2.27411e-05
2.24476e-05
2.21606e-05
2.19044e-05
2.1684e-05
2.14992e-05
2.13506e-05
2.13384e-05
2.15059e-05
2.16954e-05
2.19153e-05
2.21688e-05
2.2452e-05
2.27407e-05
2.29719e-05
2.31208e-05
2.31938e-05
2.31938e-05
2.31208e-05
2.29718e-05
2.27406e-05
2.24518e-05
2.21684e-05
2.19143e-05
2.16936e-05
2.1503e-05
2.13349e-05
)
;

boundaryField
{
    defaultFaces
    {
        type            empty;
    }
}


// ************************************************************************* //
