/*--------------------------------*- C++ -*----------------------------------*\
  =========                 |
  \\      /  F ield         | OpenFOAM: The Open Source CFD Toolbox
   \\    /   O peration     | Website:  https://openfoam.org
    \\  /    A nd           | Version:  11
     \\/     M anipulation  |
\*---------------------------------------------------------------------------*/
FoamFile
{
    format      ascii;
    class       volScalarField;
    location    "8";
    object      k;
}
// * * * * * * * * * * * * * * * * * * * * * * * * * * * * * * * * * * * * * //

dimensions      [0 2 -2 0 0 0 0];

internalField   nonuniform List<scalar> 
400
(
0.000667892
0.000443687
0.000331186
0.000273676
0.000238231
0.000213696
0.000196671
0.000185398
0.000179436
0.000176762
0.000176767
0.000179451
0.000185424
0.000196712
0.000213756
0.000238314
0.000273784
0.000331308
0.000443793
0.000667978
0.000448532
0.00042798
0.000354834
0.000292465
0.000249667
0.000220603
0.000200979
0.000188684
0.000182112
0.000179188
0.000179193
0.000182128
0.000188711
0.000201021
0.000220666
0.000249753
0.000292573
0.000354945
0.000428066
0.000448583
0.00033521
0.000357827
0.00033949
0.000299419
0.000259418
0.000228064
0.000206089
0.000192637
0.000185389
0.000182172
0.000182178
0.000185405
0.000192665
0.000206134
0.000228129
0.000259504
0.000299516
0.00033958
0.00035789
0.000335247
0.000276784
0.000295629
0.00030123
0.000287453
0.000261303
0.000233576
0.000211193
0.000196977
0.00018917
0.000185683
0.000185688
0.000189186
0.000197006
0.000211238
0.00023364
0.00026138
0.000287533
0.000301298
0.000295677
0.000276816
0.000240953
0.000252343
0.000261561
0.000262404
0.000251948
0.000233683
0.000214618
0.000200983
0.000193094
0.000189494
0.000189499
0.000193111
0.000201012
0.000214661
0.00023374
0.000252012
0.000262465
0.000261611
0.00025238
0.00024098
0.000215993
0.00022274
0.000229869
0.000234854
0.000234255
0.000226495
0.000214187
0.000203317
0.000196351
0.000193019
0.000193024
0.000196367
0.000203344
0.000214225
0.000226541
0.000234303
0.000234898
0.000229905
0.000222767
0.000216013
0.000198321
0.000202455
0.000207287
0.000212034
0.00021502
0.000214189
0.000209007
0.000202534
0.000197667
0.000195152
0.000195156
0.00019768
0.000202556
0.000209037
0.000214223
0.000215053
0.000212064
0.000207311
0.000202473
0.000198334
0.000187219
0.000189988
0.000193371
0.000197128
0.000200579
0.000202492
0.000201713
0.00019903
0.00019646
0.000194987
0.000194991
0.00019647
0.000199047
0.000201734
0.000202516
0.000200601
0.000197147
0.000193386
0.000189997
0.000187225
0.000180203
0.000182282
0.000184873
0.000187905
0.000191106
0.000193832
0.000195146
0.000194825
0.000193952
0.000193333
0.000193335
0.00019396
0.000194836
0.000195161
0.000193848
0.00019112
0.000187918
0.000184881
0.000182286
0.000180204
0.000175556
0.000177242
0.000179367
0.000181923
0.000184804
0.000187678
0.000189893
0.000190875
0.000191077
0.000191042
0.000191044
0.000191083
0.000190883
0.000189902
0.000187688
0.000184813
0.00018193
0.00017937
0.000177242
0.000175554
0.000172403
0.00017385
0.000175686
0.000177928
0.000180543
0.000183356
0.000185911
0.000187549
0.000188363
0.00018868
0.000188682
0.000188366
0.000187554
0.000185918
0.000183362
0.000180548
0.000177932
0.000175686
0.000173847
0.000172397
0.00017025
0.000171548
0.000173199
0.000175231
0.000177646
0.000180344
0.00018299
0.000184924
0.000186052
0.000186563
0.000186563
0.000186054
0.000184927
0.000182994
0.000180347
0.000177648
0.000175232
0.000173196
0.000171543
0.000170242
0.000168798
0.000170002
0.000171532
0.000173424
0.000175691
0.000178276
0.000180907
0.00018295
0.000184219
0.000184823
0.000184823
0.00018422
0.000182951
0.000180909
0.000178277
0.000175691
0.000173423
0.000171528
0.000169995
0.000168789
0.000167861
0.000169005
0.000170457
0.000172253
0.000174415
0.000176901
0.000179477
0.000181533
0.000182848
0.000183488
0.000183488
0.000182849
0.000181533
0.000179477
0.0001769
0.000174414
0.00017225
0.00017045
0.000168996
0.00016785
0.000167375
0.000168486
0.000169892
0.000171633
0.000173727
0.000176138
0.000178649
0.000180673
0.000181981
0.000182623
0.000182623
0.000181982
0.000180672
0.000178648
0.000176137
0.000173724
0.000171628
0.000169884
0.000168475
0.000167362
0.000167175
0.000168271
0.000169657
0.000171369
0.000173425
0.000175785
0.000178237
0.000180216
0.000181499
0.000182129
0.000182129
0.000181499
0.000180215
0.000178237
0.000175783
0.000173422
0.000171364
0.000169647
0.000168257
0.000167159
0.000167107
0.0001682
0.000169582
0.000171287
0.000173322
0.000175643
0.000178043
0.000179976
0.000181228
0.000181844
0.000181844
0.000181228
0.000179975
0.000178042
0.000175641
0.000173319
0.000171281
0.000169572
0.000168184
0.000167087
0.00016708
0.000168185
0.000169584
0.000171296
0.000173317
0.000175604
0.000177957
0.000179847
0.000181071
0.000181672
0.000181672
0.000181071
0.000179847
0.000177956
0.000175603
0.000173314
0.000171289
0.000169573
0.000168168
0.000167057
0.000167032
0.000168189
0.000169628
0.000171351
0.000173359
0.000175614
0.000177924
0.000179778
0.000180976
0.000181564
0.000181564
0.000180976
0.000179778
0.000177923
0.000175612
0.000173355
0.000171344
0.000169617
0.00016817
0.000167008
0.000166905
0.000168216
0.000169702
0.000171427
0.000173418
0.000175644
0.000177918
0.000179742
0.000180918
0.000181495
0.000181495
0.000180918
0.000179741
0.000177917
0.000175642
0.000173414
0.00017142
0.00016969
0.000168198
0.000166884
)
;

boundaryField
{
    defaultFaces
    {
        type            empty;
    }
}


// ************************************************************************* //
