/*--------------------------------*- C++ -*----------------------------------*\
  =========                 |
  \\      /  F ield         | OpenFOAM: The Open Source CFD Toolbox
   \\    /   O peration     | Website:  https://openfoam.org
    \\  /    A nd           | Version:  11
     \\/     M anipulation  |
\*---------------------------------------------------------------------------*/
FoamFile
{
    format      ascii;
    class       volScalarField;
    location    "8";
    object      nut;
}
// * * * * * * * * * * * * * * * * * * * * * * * * * * * * * * * * * * * * * //

dimensions      [0 2 -1 0 0 0 0];

internalField   nonuniform List<scalar> 
400
(
0.000474725
0.000315452
0.000235512
0.000194695
0.000169565
0.000152183
0.000140127
0.000132141
0.000127918
0.000126023
0.000126026
0.000127926
0.000132155
0.000140148
0.000152213
0.000169604
0.000194742
0.000235566
0.000315509
0.00047479
0.000318881
0.000304324
0.000252381
0.000208092
0.000177717
0.000157106
0.000143196
0.000134482
0.000129824
0.00012775
0.000127753
0.000129832
0.000134497
0.000143219
0.000157137
0.000177757
0.00020814
0.000252433
0.000304374
0.00031892
0.000238329
0.000254483
0.000241496
0.000213058
0.000184667
0.000162419
0.000146834
0.000137294
0.000132153
0.000129871
0.000129874
0.000132162
0.000137309
0.000146858
0.000162452
0.000184707
0.000213104
0.000241542
0.000254521
0.000238356
0.000196818
0.000210275
0.000214306
0.000204556
0.000186009
0.000166339
0.000150459
0.000140373
0.000134833
0.000132358
0.000132361
0.000134843
0.00014039
0.000150483
0.000166371
0.000186047
0.000204596
0.000214343
0.000210304
0.000196839
0.000171354
0.000179494
0.000186092
0.000186734
0.000179342
0.000166396
0.000152874
0.000143201
0.000137601
0.000135044
0.000135047
0.00013761
0.000143217
0.000152898
0.000166426
0.000179375
0.000186767
0.00018612
0.000179516
0.000171372
0.000153579
0.000158408
0.000163515
0.0001671
0.000166715
0.000161236
0.000152518
0.00014481
0.000139866
0.000137499
0.000137502
0.000139875
0.000144825
0.000152539
0.000161262
0.000166741
0.000167125
0.000163536
0.000158425
0.000153592
0.00014093
0.000143896
0.000147364
0.000150777
0.00015294
0.000152388
0.000148737
0.000144155
0.000140703
0.000138918
0.000138921
0.000140711
0.000144168
0.000148755
0.000152408
0.00015296
0.000150795
0.000147379
0.000143908
0.000140939
0.000132903
0.000134894
0.000137327
0.000140032
0.000142523
0.000143922
0.000143401
0.000141515
0.000139697
0.000138654
0.000138656
0.000139704
0.000141526
0.000143415
0.000143937
0.000142537
0.000140044
0.000137337
0.000134901
0.000132909
0.000127761
0.000129257
0.000131122
0.000133306
0.000135615
0.000137589
0.000138555
0.000138347
0.000137738
0.000137301
0.000137303
0.000137743
0.000138355
0.000138564
0.000137599
0.000135625
0.000133315
0.000131129
0.000129261
0.000127764
0.000124298
0.00012551
0.000127038
0.000128877
0.000130952
0.000133025
0.000134628
0.000135346
0.000135501
0.00013548
0.000135481
0.000135504
0.000135351
0.000134635
0.000133032
0.000130958
0.000128883
0.000127042
0.000125512
0.000124298
0.000121903
0.000122941
0.000124258
0.000125867
0.000127745
0.000129767
0.000131606
0.000132787
0.000133375
0.000133605
0.000133606
0.000133377
0.00013279
0.00013161
0.000129771
0.000127749
0.00012587
0.000124259
0.00012294
0.000121901
0.000120232
0.00012116
0.000122339
0.000123793
0.000125521
0.000127453
0.00012935
0.000130737
0.000131547
0.000131913
0.000131914
0.000131548
0.000130739
0.000129352
0.000127456
0.000125522
0.000123794
0.000122339
0.000121158
0.000120229
0.00011908
0.000119936
0.000121025
0.000122373
0.000123989
0.000125833
0.000127712
0.000129171
0.000130079
0.000130511
0.000130511
0.00013008
0.000129173
0.000127713
0.000125833
0.000123989
0.000122372
0.000121023
0.000119932
0.000119075
0.000118315
0.000119126
0.000120155
0.00012143
0.000122965
0.000124732
0.000126566
0.000128031
0.000128969
0.000129425
0.000129425
0.000128969
0.000128031
0.000126566
0.000124732
0.000122964
0.000121428
0.000120152
0.000119121
0.000118309
0.000117903
0.000118688
0.000119682
0.000120914
0.000122398
0.000124108
0.000125891
0.00012733
0.000128262
0.000128718
0.000128718
0.000128262
0.00012733
0.00012589
0.000124107
0.000122396
0.000120911
0.000119678
0.000118682
0.000117896
0.000117723
0.000118496
0.000119474
0.000120685
0.000122139
0.000123811
0.00012555
0.000126955
0.000127868
0.000128316
0.000128316
0.000127868
0.000126955
0.000125549
0.000123809
0.000122137
0.000120681
0.000119469
0.000118488
0.000117714
0.000117653
0.000118424
0.000119399
0.000120604
0.000122043
0.000123686
0.000125387
0.000126759
0.00012765
0.000128087
0.000128087
0.000127649
0.000126759
0.000125386
0.000123684
0.00012204
0.0001206
0.000119393
0.000118415
0.000117643
0.000117623
0.000118402
0.00011939
0.000120598
0.000122028
0.000123646
0.000125314
0.000126656
0.000127525
0.000127953
0.000127953
0.000127525
0.000126655
0.000125313
0.000123645
0.000122025
0.000120594
0.000119383
0.000118393
0.000117611
0.000117585
0.000118401
0.000119416
0.000120632
0.000122052
0.000123648
0.000125285
0.000126601
0.000127453
0.000127871
0.000127871
0.000127453
0.000126601
0.000125284
0.000123646
0.000122049
0.000120628
0.00011941
0.000118391
0.000117573
0.000117496
0.000118419
0.000119466
0.000120684
0.000122092
0.000123667
0.000125279
0.000126574
0.00012741
0.000127821
0.000127821
0.00012741
0.000126574
0.000125278
0.000123666
0.000122089
0.00012068
0.00011946
0.00011841
0.000117484
)
;

boundaryField
{
    defaultFaces
    {
        type            empty;
    }
}


// ************************************************************************* //
