/*--------------------------------*- C++ -*----------------------------------*\
  =========                 |
  \\      /  F ield         | OpenFOAM: The Open Source CFD Toolbox
   \\    /   O peration     | Website:  https://openfoam.org
    \\  /    A nd           | Version:  11
     \\/     M anipulation  |
\*---------------------------------------------------------------------------*/
FoamFile
{
    format      ascii;
    class       volScalarField;
    location    "2";
    object      epsilon;
}
// * * * * * * * * * * * * * * * * * * * * * * * * * * * * * * * * * * * * * //

dimensions      [0 2 -3 0 0 0 0];

internalField   nonuniform List<scalar> 
400
(
0.000961195
0.000637602
0.000475515
0.000393043
0.000343003
0.000309722
0.0002886
0.000276255
0.000270787
0.000268643
0.000268645
0.000270792
0.000276267
0.000288626
0.000309777
0.000343103
0.000393198
0.000475679
0.000637651
0.000961076
0.00064491
0.000615167
0.000509625
0.000419988
0.000359227
0.000319351
0.000294518
0.000280865
0.000274699
0.00027231
0.000272311
0.000274704
0.000280877
0.000294547
0.00031941
0.00035933
0.000420129
0.000509739
0.000615177
0.000644832
0.000482235
0.000514433
0.000487807
0.000430144
0.000373225
0.000329902
0.000301659
0.000286472
0.000279512
0.00027682
0.000276822
0.000279517
0.000286485
0.000301689
0.000329962
0.000373318
0.000430249
0.000487874
0.000514435
0.000482201
0.000399381
0.000425863
0.000433483
0.000413506
0.000376308
0.000337979
0.000309012
0.000292773
0.000285139
0.000282161
0.000282162
0.000285145
0.000292787
0.000309041
0.000338032
0.00037638
0.000413573
0.000433521
0.000425869
0.000399374
0.000350153
0.000365678
0.000378188
0.000378944
0.000364028
0.00033898
0.000314488
0.000298953
0.000291205
0.0002881
0.000288101
0.00029121
0.000298966
0.000314514
0.000339021
0.000364075
0.000378983
0.000378209
0.000365686
0.000350154
0.000318159
0.000326861
0.0003361
0.000342443
0.000341272
0.000330839
0.000315525
0.00030353
0.000296857
0.000294032
0.000294033
0.000296862
0.00030354
0.000315544
0.000330865
0.000341298
0.000342463
0.000336111
0.000326865
0.000318159
0.000298545
0.000303485
0.00030932
0.000315066
0.000318611
0.000317505
0.000311604
0.000305084
0.000300799
0.00029882
0.00029882
0.000300802
0.00030509
0.000311615
0.000317518
0.000318623
0.000315074
0.000309323
0.000303484
0.000298541
0.000289176
0.000292305
0.00029617
0.000300495
0.000304507
0.000306832
0.000306365
0.000304226
0.000302359
0.000301384
0.000301384
0.00030236
0.000304229
0.00030637
0.000306837
0.000304511
0.000300497
0.000296169
0.000292301
0.00028917
0.000285027
0.000287395
0.000290356
0.000293828
0.000297521
0.000300764
0.000302628
0.000302929
0.000302657
0.000302418
0.000302418
0.000302658
0.000302931
0.000302631
0.000300767
0.000297523
0.000293828
0.000290353
0.00028739
0.000285021
0.000283278
0.000285317
0.000287871
0.000290917
0.000294327
0.000297746
0.000300493
0.000301957
0.000302553
0.000302748
0.000302749
0.000302554
0.000301958
0.000300495
0.000297747
0.000294328
0.000290916
0.000287869
0.000285312
0.000283272
0.000282616
0.000284516
0.000286892
0.000289737
0.000292983
0.000296395
0.000299441
0.000301395
0.0003024
0.000302814
0.000302814
0.000302401
0.000301395
0.000299442
0.000296396
0.000292983
0.000289736
0.000286888
0.00028451
0.000282609
0.000282437
0.000284279
0.000286577
0.000289332
0.000292489
0.000295864
0.000298989
0.00030112
0.000302292
0.0003028
0.000302801
0.000302293
0.000301121
0.000298989
0.000295865
0.00029249
0.00028933
0.000286574
0.000284274
0.00028243
0.000282474
0.000284294
0.000286556
0.000289265
0.000292373
0.000295707
0.00029883
0.000301004
0.000302226
0.000302765
0.000302765
0.000302226
0.000301004
0.000298831
0.000295708
0.000292373
0.000289264
0.000286552
0.000284288
0.000282466
0.000282618
0.000284429
0.000286673
0.000289355
0.000292428
0.00029572
0.000298804
0.000300957
0.000302173
0.000302711
0.000302711
0.000302173
0.000300958
0.000298805
0.000295721
0.000292427
0.000289353
0.000286668
0.000284422
0.000282609
0.000282812
0.00028462
0.000286853
0.000289518
0.000292561
0.000295809
0.000298832
0.00030093
0.000302107
0.000302626
0.000302627
0.000302108
0.000300931
0.000298834
0.00029581
0.000292561
0.000289515
0.000286846
0.00028461
0.000282799
0.000282995
0.000284805
0.000287034
0.000289691
0.000292713
0.000295916
0.000298871
0.000300899
0.000302027
0.00030252
0.00030252
0.000302028
0.000300901
0.000298873
0.000295917
0.000292713
0.000289687
0.000287025
0.00028479
0.000282977
0.000283138
0.000284955
0.000287195
0.000289857
0.000292864
0.000296022
0.000298904
0.000300861
0.000301938
0.000302405
0.000302405
0.000301939
0.000300863
0.000298906
0.000296024
0.000292865
0.000289853
0.000287184
0.000284936
0.000283113
0.000283213
0.000285057
0.000287332
0.000290014
0.00029301
0.00029612
0.000298929
0.000300819
0.000301848
0.000302291
0.000302291
0.000301849
0.000300821
0.000298932
0.000296122
0.000293011
0.000290012
0.000287321
0.000285034
0.000283182
0.000283182
0.000285116
0.000287464
0.000290169
0.000293145
0.000296205
0.000298946
0.000300777
0.000301765
0.000302186
0.000302187
0.000301766
0.000300779
0.000298949
0.000296208
0.000293146
0.000290166
0.000287452
0.000285094
0.000283152
0.000282985
0.000285182
0.000287609
0.000290319
0.000293266
0.000296278
0.000298958
0.000300739
0.000301691
0.000302095
0.000302096
0.000301692
0.000300741
0.000298961
0.00029628
0.000293267
0.000290315
0.000287596
0.00028516
0.000282958
)
;

boundaryField
{
    defaultFaces
    {
        type            empty;
    }
}


// ************************************************************************* //
