/*--------------------------------*- C++ -*----------------------------------*\
  =========                 |
  \\      /  F ield         | OpenFOAM: The Open Source CFD Toolbox
   \\    /   O peration     | Website:  https://openfoam.org
    \\  /    A nd           | Version:  11
     \\/     M anipulation  |
\*---------------------------------------------------------------------------*/
FoamFile
{
    format      ascii;
    class       volScalarField;
    location    "2";
    object      k;
}
// * * * * * * * * * * * * * * * * * * * * * * * * * * * * * * * * * * * * * //

dimensions      [0 2 -2 0 0 0 0];

internalField   nonuniform List<scalar> 
400
(
0.00227687
0.00151153
0.00112773
0.000932194
0.000813025
0.000732854
0.000680661
0.000649068
0.000634321
0.000628294
0.000628298
0.000634333
0.000649096
0.000680719
0.000732966
0.000813218
0.000932484
0.00112804
0.00151166
0.00227675
0.00152877
0.00145841
0.00120867
0.000996244
0.000851698
0.000755894
0.000694856
0.000660056
0.000643558
0.000636894
0.000636898
0.000643571
0.000660086
0.000694919
0.000756016
0.000851899
0.000996514
0.00120891
0.00145848
0.00152868
0.0011435
0.00121998
0.00115701
0.00102036
0.000885002
0.000781088
0.000711955
0.000673432
0.000654956
0.000647517
0.000647521
0.00065497
0.000673463
0.000712022
0.000781211
0.000885189
0.00102057
0.00115716
0.00122001
0.00114347
0.00094698
0.00100999
0.00102818
0.000980803
0.000892257
0.000800292
0.00072951
0.000688465
0.000668328
0.000660164
0.000660168
0.000668342
0.000688498
0.000729576
0.000800405
0.000892408
0.000980949
0.00102827
0.00101003
0.000946983
0.000829649
0.000866731
0.000896591
0.000898424
0.000862774
0.000802451
0.000742458
0.000703179
0.00068279
0.000674319
0.000674323
0.000682804
0.000703209
0.000742516
0.000802542
0.000862879
0.000898514
0.000896649
0.000866759
0.000829662
0.00075248
0.000773405
0.000795583
0.000810776
0.000807868
0.000782432
0.00074453
0.000713942
0.000696287
0.000688561
0.000688565
0.000696299
0.000713967
0.000744574
0.000782493
0.00080793
0.000810826
0.000795614
0.000773421
0.000752486
0.000703933
0.000715908
0.000730022
0.00074388
0.000752337
0.000749342
0.000734267
0.000717214
0.000705634
0.000700127
0.000700129
0.000705642
0.00071723
0.000734294
0.000749374
0.000752367
0.000743902
0.000730034
0.000715909
0.000703928
0.00067954
0.000687145
0.000696526
0.000707005
0.000716666
0.000722094
0.000720444
0.000714441
0.000709135
0.000706304
0.000706305
0.00070914
0.00071445
0.000720458
0.000722109
0.00071668
0.000707013
0.000696526
0.000687138
0.000679528
0.000668008
0.000673721
0.000680872
0.000689265
0.000698183
0.000705957
0.000710243
0.000710582
0.000709534
0.000708718
0.000708719
0.000709537
0.000710587
0.000710249
0.000705964
0.000698189
0.000689266
0.000680867
0.000673711
0.000667994
0.000662723
0.000667586
0.000673697
0.000681009
0.00068923
0.000697496
0.000704135
0.00070762
0.000708982
0.000709397
0.000709398
0.000708983
0.000707623
0.000704139
0.0006975
0.000689232
0.000681008
0.000673691
0.000667574
0.000662708
0.000660476
0.000664963
0.000670599
0.000677386
0.000685184
0.000693462
0.000700948
0.000705827
0.000708379
0.000709441
0.000709442
0.00070838
0.000705829
0.00070095
0.000693464
0.000685185
0.000677384
0.000670592
0.000664951
0.00066046
0.000659688
0.000664016
0.000669437
0.000675976
0.000683542
0.000691736
0.000699475
0.000704899
0.000707965
0.000709323
0.000709323
0.000707966
0.000704901
0.000699477
0.000691738
0.000683542
0.000675973
0.000669429
0.000664003
0.000659672
0.000659601
0.000663863
0.000669186
0.000675602
0.000683036
0.000691135
0.000698896
0.000704477
0.000707717
0.000709183
0.000709184
0.000707718
0.000704479
0.000698898
0.000691136
0.000683036
0.000675597
0.000669176
0.000663849
0.000659583
0.000659869
0.000664105
0.000669376
0.000675722
0.000683067
0.000691064
0.000698744
0.000704298
0.000707546
0.000709023
0.000709023
0.000707547
0.0007043
0.000698747
0.000691066
0.000683065
0.000675716
0.000669364
0.000664087
0.000659847
0.000660301
0.000664529
0.000669773
0.000676075
0.00068335
0.000691241
0.000698782
0.00070421
0.000707373
0.000708808
0.000708809
0.000707374
0.000704213
0.000698785
0.000691242
0.000683348
0.000676067
0.000669756
0.000664504
0.000660271
0.000660723
0.000664952
0.000670189
0.000676473
0.000683698
0.000691485
0.000698864
0.00070413
0.000707177
0.000708552
0.000708553
0.000707179
0.000704133
0.000698867
0.000691487
0.000683696
0.000676464
0.000670168
0.000664919
0.000660681
0.000661053
0.000665301
0.000670562
0.000676858
0.00068405
0.000691731
0.00069894
0.000704039
0.000706966
0.000708279
0.00070828
0.000706968
0.000704043
0.000698945
0.000691735
0.00068405
0.000676849
0.000670537
0.000665258
0.000660997
0.000661228
0.000665539
0.000670883
0.000677227
0.00068439
0.00069196
0.000698999
0.000703941
0.000706755
0.000708012
0.000708012
0.000706757
0.000703945
0.000699004
0.000691965
0.000684391
0.000677219
0.000670858
0.000665489
0.00066116
0.000661157
0.000665679
0.000671191
0.000677589
0.000684707
0.00069216
0.00069904
0.000703843
0.00070656
0.000707767
0.000707767
0.000706562
0.000703847
0.000699045
0.000692165
0.000684708
0.000677581
0.000671164
0.000665628
0.00066109
0.000660698
0.000665832
0.000671529
0.000677937
0.000684989
0.00069233
0.000699069
0.000703755
0.000706389
0.000707554
0.000707555
0.000706391
0.000703759
0.000699074
0.000692335
0.000684989
0.000677927
0.0006715
0.000665783
0.000660638
)
;

boundaryField
{
    defaultFaces
    {
        type            empty;
    }
}


// ************************************************************************* //
