/*--------------------------------*- C++ -*----------------------------------*\
  =========                 |
  \\      /  F ield         | OpenFOAM: The Open Source CFD Toolbox
   \\    /   O peration     | Website:  https://openfoam.org
    \\  /    A nd           | Version:  11
     \\/     M anipulation  |
\*---------------------------------------------------------------------------*/
FoamFile
{
    format      ascii;
    class       volScalarField;
    location    "2";
    object      nut;
}
// * * * * * * * * * * * * * * * * * * * * * * * * * * * * * * * * * * * * * //

dimensions      [0 2 -1 0 0 0 0];

internalField   nonuniform List<scalar> 
400
(
0.000485409
0.000322496
0.000240705
0.000198983
0.000173441
0.000156065
0.00014448
0.00013725
0.000133731
0.000132249
0.00013225
0.000133734
0.000137256
0.000144491
0.000156085
0.000173473
0.000199028
0.000240755
0.000322529
0.000485416
0.000326159
0.00031118
0.000257994
0.000212685
0.000181737
0.000161026
0.000147544
0.000139607
0.000135694
0.000134064
0.000134065
0.000135697
0.000139613
0.000147556
0.000161048
0.000181771
0.000212729
0.000258035
0.000311202
0.00032616
0.000244039
0.000260385
0.000246982
0.000217838
0.000188869
0.00016644
0.000151228
0.000142478
0.000138123
0.000136316
0.000136317
0.000138126
0.000142485
0.000151241
0.000166462
0.000188901
0.000217875
0.000247013
0.0002604
0.000244041
0.000202086
0.00021558
0.000219485
0.000209375
0.000190405
0.000170549
0.000155
0.000145706
0.000140983
0.000139011
0.000139012
0.000140986
0.000145712
0.000155013
0.00017057
0.000190433
0.000209403
0.000219506
0.000215591
0.000202091
0.000176919
0.00018489
0.000191304
0.000191703
0.000184036
0.000170965
0.000157755
0.000148857
0.000144085
0.000142047
0.000142048
0.000144088
0.000148864
0.000157767
0.000170982
0.000184057
0.000191722
0.000191318
0.000184898
0.000176923
0.000160173
0.0001647
0.00016949
0.000172765
0.000172117
0.00016654
0.000158115
0.000151135
0.000146985
0.000145122
0.000145123
0.000146987
0.000151141
0.000158124
0.000166553
0.00017213
0.000172776
0.000169498
0.000164705
0.000160175
0.000149381
0.000151991
0.000155062
0.000158069
0.000159884
0.000159166
0.000155721
0.000151747
0.000148979
0.000147634
0.000147635
0.000148981
0.000151751
0.000155727
0.000159174
0.000159892
0.000158075
0.000155066
0.000151993
0.000149381
0.000143718
0.000145379
0.000147427
0.00014971
0.000151803
0.000152943
0.000152477
0.000151001
0.000149685
0.000148972
0.000148973
0.000149686
0.000151003
0.00015248
0.000152947
0.000151806
0.000149712
0.000147427
0.000145378
0.000143716
0.000140903
0.000142142
0.000143695
0.00014552
0.000147456
0.000149133
0.000150019
0.000150013
0.000149706
0.00014948
0.00014948
0.000149707
0.000150015
0.000150021
0.000149134
0.000147458
0.00014552
0.000143695
0.00014214
0.0001409
0.000139538
0.000140582
0.000141897
0.000143476
0.000145258
0.000147055
0.000148498
0.000149244
0.000149524
0.000149603
0.000149603
0.000149524
0.000149245
0.000148499
0.000147056
0.000145259
0.000143476
0.000141896
0.000140579
0.000139535
0.000138918
0.000139872
0.000141075
0.000142531
0.000144216
0.000146021
0.000147673
0.000148766
0.000149345
0.000149589
0.000149589
0.000149345
0.000148767
0.000147674
0.000146022
0.000144217
0.000142531
0.000141074
0.00013987
0.000138915
0.000138675
0.00013959
0.000140741
0.000142138
0.000143768
0.000145556
0.000147276
0.00014851
0.000149224
0.000149546
0.000149546
0.000149224
0.000148511
0.000147276
0.000145557
0.000143768
0.000142137
0.000140739
0.000139587
0.000138672
0.000138621
0.000139519
0.000140645
0.000142013
0.000143612
0.00014538
0.00014711
0.00014839
0.000149152
0.000149504
0.000149504
0.000149153
0.00014839
0.000147111
0.00014538
0.000143612
0.000142012
0.000140643
0.000139516
0.000138617
0.000138662
0.000139554
0.000140668
0.000142019
0.000143599
0.000145345
0.000147059
0.000148338
0.000149106
0.000149463
0.000149463
0.000149107
0.000148338
0.00014706
0.000145345
0.000143598
0.000142018
0.000140666
0.00013955
0.000138657
0.000138749
0.000139638
0.000140747
0.000142088
0.000143652
0.000145375
0.000147061
0.000148314
0.000149066
0.000149415
0.000149415
0.000149066
0.000148314
0.000147062
0.000145375
0.000143652
0.000142086
0.000140743
0.000139633
0.000138742
0.000138836
0.000139726
0.000140833
0.00014217
0.000143724
0.000145425
0.000147077
0.000148295
0.000149023
0.000149359
0.000149359
0.000149023
0.000148296
0.000147077
0.000145425
0.000143723
0.000142168
0.000140828
0.000139719
0.000138827
0.000138905
0.000139799
0.000140911
0.000142251
0.000143798
0.000145477
0.000147093
0.000148276
0.000148978
0.000149301
0.000149301
0.000148978
0.000148276
0.000147093
0.000145477
0.000143797
0.000142249
0.000140905
0.00013979
0.000138894
0.000138941
0.000139848
0.000140978
0.000142328
0.000143869
0.000145525
0.000147105
0.000148255
0.000148933
0.000149244
0.000149245
0.000148934
0.000148256
0.000147106
0.000145526
0.000143869
0.000142326
0.000140973
0.000139839
0.000138928
0.000138927
0.000139878
0.000141043
0.000142404
0.000143936
0.000145567
0.000147114
0.000148235
0.000148892
0.000149193
0.000149193
0.000148893
0.000148235
0.000147115
0.000145568
0.000143936
0.000142402
0.000141037
0.000139868
0.000138914
0.000138831
0.00013991
0.000141114
0.000142478
0.000143995
0.000145603
0.00014712
0.000148216
0.000148856
0.000149148
0.000149148
0.000148857
0.000148217
0.000147121
0.000145604
0.000143995
0.000142475
0.000141108
0.000139901
0.000138819
)
;

boundaryField
{
    defaultFaces
    {
        type            empty;
    }
}


// ************************************************************************* //
