/*--------------------------------*- C++ -*----------------------------------*\
  =========                 |
  \\      /  F ield         | OpenFOAM: The Open Source CFD Toolbox
   \\    /   O peration     | Website:  https://openfoam.org
    \\  /    A nd           | Version:  11
     \\/     M anipulation  |
\*---------------------------------------------------------------------------*/
FoamFile
{
    format      ascii;
    class       volScalarField;
    location    "9";
    object      epsilon;
}
// * * * * * * * * * * * * * * * * * * * * * * * * * * * * * * * * * * * * * //

dimensions      [0 2 -3 0 0 0 0];

internalField   nonuniform List<scalar> 
400
(
6.7497e-05
4.48299e-05
3.34603e-05
2.7643e-05
2.40548e-05
2.15704e-05
1.98464e-05
1.87051e-05
1.81015e-05
1.78309e-05
1.78314e-05
1.81033e-05
1.87083e-05
1.98514e-05
2.1578e-05
2.40656e-05
2.76572e-05
3.34765e-05
4.48431e-05
6.75061e-05
4.53198e-05
4.32363e-05
3.58399e-05
2.95342e-05
2.5206e-05
2.22658e-05
2.02801e-05
1.90362e-05
1.83714e-05
1.80756e-05
1.80762e-05
1.83732e-05
1.90396e-05
2.02855e-05
2.22738e-05
2.52172e-05
2.95483e-05
3.58543e-05
4.32467e-05
4.53252e-05
3.38676e-05
3.6143e-05
3.4285e-05
3.02321e-05
2.61874e-05
2.30169e-05
2.07949e-05
1.94346e-05
1.87019e-05
1.83767e-05
1.83773e-05
1.87038e-05
1.94381e-05
2.08004e-05
2.30251e-05
2.61983e-05
3.02446e-05
3.42964e-05
3.61506e-05
3.38719e-05
2.79575e-05
2.98549e-05
3.04158e-05
2.90201e-05
2.63749e-05
2.35715e-05
2.13088e-05
1.98721e-05
1.90831e-05
1.87309e-05
1.87315e-05
1.90851e-05
1.98756e-05
2.13144e-05
2.35795e-05
2.63847e-05
2.90302e-05
3.04242e-05
2.98606e-05
2.79614e-05
2.43296e-05
2.5477e-05
2.64047e-05
2.64869e-05
2.5428e-05
2.35808e-05
2.16536e-05
2.02759e-05
1.9479e-05
1.91155e-05
1.91161e-05
1.9481e-05
2.02794e-05
2.16589e-05
2.35878e-05
2.5436e-05
2.64945e-05
2.64109e-05
2.54815e-05
2.4333e-05
2.18011e-05
2.24814e-05
2.31997e-05
2.37014e-05
2.36392e-05
2.28538e-05
2.16095e-05
2.05113e-05
1.98078e-05
1.94714e-05
1.9472e-05
1.98097e-05
2.05145e-05
2.16141e-05
2.28594e-05
2.36451e-05
2.37068e-05
2.32041e-05
2.24846e-05
2.18036e-05
2.00104e-05
2.04277e-05
2.09153e-05
2.13941e-05
2.16949e-05
2.16102e-05
2.10863e-05
2.04323e-05
1.99408e-05
1.9687e-05
1.96875e-05
1.99424e-05
2.04349e-05
2.10898e-05
2.16142e-05
2.16989e-05
2.13977e-05
2.09181e-05
2.04298e-05
2.00119e-05
1.88854e-05
1.91653e-05
1.95072e-05
1.98867e-05
2.02352e-05
2.04285e-05
2.03497e-05
2.00788e-05
1.98193e-05
1.96707e-05
1.96711e-05
1.98205e-05
2.00807e-05
2.03522e-05
2.04312e-05
2.02379e-05
1.9889e-05
1.95089e-05
1.91664e-05
1.88861e-05
1.8175e-05
1.83854e-05
1.86475e-05
1.89542e-05
1.92779e-05
1.95536e-05
1.96866e-05
1.96544e-05
1.95664e-05
1.9504e-05
1.95043e-05
1.95673e-05
1.96557e-05
1.96883e-05
1.95554e-05
1.92795e-05
1.89556e-05
1.86484e-05
1.83858e-05
1.81752e-05
1.77051e-05
1.78757e-05
1.80908e-05
1.83495e-05
1.86411e-05
1.8932e-05
1.91561e-05
1.92557e-05
1.92764e-05
1.92729e-05
1.92731e-05
1.92769e-05
1.92566e-05
1.91572e-05
1.89331e-05
1.86421e-05
1.83503e-05
1.80912e-05
1.78757e-05
1.77048e-05
1.73867e-05
1.75333e-05
1.77191e-05
1.79461e-05
1.82108e-05
1.84955e-05
1.87541e-05
1.89199e-05
1.90023e-05
1.90345e-05
1.90346e-05
1.90027e-05
1.89204e-05
1.87548e-05
1.84961e-05
1.82113e-05
1.79465e-05
1.77191e-05
1.7533e-05
1.73862e-05
1.71699e-05
1.73013e-05
1.74683e-05
1.7674e-05
1.79183e-05
1.81913e-05
1.8459e-05
1.86547e-05
1.87689e-05
1.88205e-05
1.88206e-05
1.87691e-05
1.8655e-05
1.84594e-05
1.81917e-05
1.79185e-05
1.76741e-05
1.7468e-05
1.73007e-05
1.7169e-05
1.7024e-05
1.71458e-05
1.73005e-05
1.74918e-05
1.77211e-05
1.79825e-05
1.82486e-05
1.84552e-05
1.85836e-05
1.86446e-05
1.86446e-05
1.85837e-05
1.84553e-05
1.82488e-05
1.79826e-05
1.77211e-05
1.74917e-05
1.73e-05
1.7145e-05
1.7023e-05
1.69302e-05
1.70458e-05
1.71925e-05
1.73741e-05
1.75925e-05
1.78437e-05
1.81041e-05
1.83119e-05
1.84449e-05
1.85094e-05
1.85095e-05
1.84449e-05
1.8312e-05
1.81041e-05
1.78437e-05
1.75924e-05
1.73737e-05
1.71918e-05
1.70448e-05
1.69289e-05
1.68818e-05
1.6994e-05
1.7136e-05
1.73117e-05
1.75232e-05
1.77668e-05
1.80205e-05
1.82249e-05
1.83571e-05
1.84218e-05
1.84219e-05
1.83571e-05
1.82249e-05
1.80204e-05
1.77667e-05
1.7523e-05
1.73112e-05
1.71351e-05
1.69927e-05
1.68803e-05
1.68621e-05
1.69727e-05
1.71125e-05
1.72854e-05
1.7493e-05
1.77313e-05
1.79789e-05
1.81787e-05
1.83082e-05
1.83718e-05
1.83718e-05
1.83082e-05
1.81786e-05
1.79788e-05
1.77311e-05
1.74926e-05
1.72848e-05
1.71115e-05
1.69712e-05
1.68603e-05
1.68555e-05
1.69658e-05
1.71053e-05
1.72773e-05
1.74827e-05
1.7717e-05
1.79593e-05
1.81544e-05
1.82808e-05
1.8343e-05
1.83429e-05
1.82808e-05
1.81543e-05
1.79592e-05
1.77168e-05
1.74823e-05
1.72766e-05
1.71041e-05
1.6964e-05
1.68533e-05
1.6853e-05
1.69645e-05
1.71056e-05
1.72783e-05
1.74823e-05
1.77131e-05
1.79505e-05
1.81414e-05
1.82649e-05
1.83256e-05
1.83255e-05
1.82649e-05
1.81413e-05
1.79505e-05
1.77129e-05
1.74819e-05
1.72776e-05
1.71044e-05
1.69625e-05
1.68503e-05
1.68481e-05
1.69648e-05
1.711e-05
1.72838e-05
1.74864e-05
1.7714e-05
1.79472e-05
1.81344e-05
1.82553e-05
1.83147e-05
1.83147e-05
1.82553e-05
1.81343e-05
1.79471e-05
1.77139e-05
1.74861e-05
1.72831e-05
1.71088e-05
1.69628e-05
1.68455e-05
1.68354e-05
1.69676e-05
1.71174e-05
1.72915e-05
1.74924e-05
1.77171e-05
1.79466e-05
1.81307e-05
1.82495e-05
1.83077e-05
1.83077e-05
1.82495e-05
1.81307e-05
1.79465e-05
1.77169e-05
1.7492e-05
1.72907e-05
1.71161e-05
1.69656e-05
1.68329e-05
)
;

boundaryField
{
    defaultFaces
    {
        type            empty;
    }
}


// ************************************************************************* //
