/*--------------------------------*- C++ -*----------------------------------*\
  =========                 |
  \\      /  F ield         | OpenFOAM: The Open Source CFD Toolbox
   \\    /   O peration     | Website:  https://openfoam.org
    \\  /    A nd           | Version:  11
     \\/     M anipulation  |
\*---------------------------------------------------------------------------*/
FoamFile
{
    format      ascii;
    class       volScalarField;
    location    "9";
    object      k;
}
// * * * * * * * * * * * * * * * * * * * * * * * * * * * * * * * * * * * * * //

dimensions      [0 2 -2 0 0 0 0];

internalField   nonuniform List<scalar> 
400
(
0.000595275
0.000395467
0.000295219
0.000243985
0.00021242
0.000190583
0.000175439
0.000165415
0.000160116
0.00015774
0.000157744
0.000160129
0.000165437
0.000175474
0.000190633
0.00021249
0.000244075
0.000295321
0.000395558
0.000595354
0.000399768
0.000381459
0.000316283
0.000260719
0.000222603
0.000196731
0.000179274
0.000168341
0.0001625
0.000159902
0.000159906
0.000162514
0.000168365
0.00017931
0.000196785
0.000222676
0.000260809
0.000316377
0.000381534
0.000399816
0.000298757
0.000318925
0.000302596
0.000266904
0.000231281
0.000203369
0.000183819
0.000171857
0.000165416
0.000162557
0.000162562
0.00016543
0.000171882
0.000183857
0.000203424
0.000231353
0.000266986
0.000302673
0.000318981
0.000298792
0.000246655
0.000263468
0.000268477
0.00025622
0.00023294
0.000208263
0.00018835
0.00017571
0.000168771
0.000165672
0.000165677
0.000168785
0.000175735
0.000188388
0.000208316
0.000233006
0.000256288
0.000268536
0.00026351
0.000246685
0.000214667
0.000224841
0.00023308
0.000233858
0.000224568
0.000208324
0.000191369
0.000179248
0.000172237
0.000169038
0.000169043
0.000172251
0.000179273
0.000191406
0.000208372
0.000224623
0.000233911
0.000233124
0.000224874
0.000214692
0.00019233
0.000198371
0.000204755
0.000209231
0.000208732
0.000201854
0.000190922
0.000181266
0.000175078
0.000172118
0.000172123
0.000175092
0.000181289
0.000190955
0.000201894
0.000208774
0.00020927
0.000204787
0.000198395
0.00019235
0.000176438
0.000180152
0.000184493
0.000188763
0.000191467
0.000190769
0.000186193
0.000180455
0.000176137
0.000173906
0.00017391
0.000176149
0.000180475
0.000186219
0.000190799
0.000191496
0.00018879
0.000184515
0.000180168
0.000176451
0.000166361
0.000168857
0.000171907
0.000175296
0.000178417
0.000180171
0.000179521
0.000177163
0.000174892
0.000173589
0.000173592
0.000174901
0.000177178
0.00017954
0.000180192
0.000178438
0.000175314
0.000171921
0.000168867
0.000166368
0.000159916
0.000161793
0.000164133
0.000166873
0.00016977
0.000172247
0.000173463
0.00017321
0.000172452
0.000171909
0.000171911
0.000172459
0.00017322
0.000173476
0.000172261
0.000169783
0.000166885
0.000164141
0.000161798
0.000159918
0.000155581
0.000157103
0.000159022
0.000161331
0.000163936
0.00016654
0.000168555
0.000169461
0.000169661
0.000169638
0.00016964
0.000169666
0.000169469
0.000168564
0.000166549
0.000163945
0.000161338
0.000159026
0.000157104
0.00015558
0.000152587
0.000153891
0.000155545
0.000157566
0.000159925
0.000162465
0.000164776
0.000166262
0.000167004
0.000167295
0.000167296
0.000167007
0.000166267
0.000164782
0.000162471
0.00015993
0.00015757
0.000155546
0.00015389
0.000152584
0.000150502
0.000151666
0.000153148
0.000154973
0.000157143
0.00015957
0.000161952
0.000163696
0.000164714
0.000165175
0.000165176
0.000164716
0.000163699
0.000161956
0.000159574
0.000157146
0.000154975
0.000153147
0.000151663
0.000150496
0.000149064
0.000150139
0.000151506
0.000153197
0.000155226
0.00015754
0.000159899
0.000161731
0.000162871
0.000163413
0.000163413
0.000162872
0.000161733
0.0001599
0.000157541
0.000155226
0.000153196
0.000151503
0.000150133
0.000149057
0.00014811
0.000149127
0.000150418
0.000152017
0.000153943
0.00015616
0.000158459
0.000160296
0.000161473
0.000162044
0.000162044
0.000161473
0.000160297
0.000158459
0.00015616
0.000153942
0.000152015
0.000150414
0.00014912
0.000148102
0.000147598
0.000148582
0.000149828
0.000151372
0.000153231
0.000155374
0.000157609
0.000159412
0.000160579
0.000161151
0.000161151
0.000160579
0.000159412
0.000157609
0.000155373
0.000153229
0.000151368
0.000149822
0.000148573
0.000147587
0.000147375
0.000148343
0.000149569
0.000151085
0.000152907
0.000155001
0.000157179
0.000158939
0.000160081
0.000160642
0.000160642
0.000160081
0.000158939
0.000157179
0.000154999
0.000152904
0.00015108
0.000149561
0.000148333
0.000147362
0.00014729
0.000148255
0.000149476
0.000150984
0.000152786
0.000154843
0.000156973
0.000158691
0.000159805
0.000160353
0.000160353
0.000159805
0.00015869
0.000156973
0.000154842
0.000152783
0.000150979
0.000149468
0.000148242
0.000147274
0.000147254
0.000148229
0.000149465
0.000150978
0.000152767
0.000154793
0.00015688
0.00015856
0.000159648
0.000160183
0.000160183
0.000159648
0.000158559
0.00015688
0.000154792
0.000152764
0.000150973
0.000149456
0.000148215
0.000147236
0.000147206
0.000148227
0.000149497
0.00015102
0.000152797
0.000154795
0.000156844
0.000158492
0.000159557
0.00016008
0.00016008
0.000159557
0.000158491
0.000156844
0.000154793
0.000152794
0.000151015
0.000149489
0.000148213
0.000147188
0.000147094
0.00014825
0.000149561
0.000151085
0.000152847
0.000154819
0.000156837
0.000158457
0.000159503
0.000160017
0.000160017
0.000159503
0.000158457
0.000156836
0.000154818
0.000152844
0.00015108
0.000149552
0.000148236
0.000147077
)
;

boundaryField
{
    defaultFaces
    {
        type            empty;
    }
}


// ************************************************************************* //
