/*--------------------------------*- C++ -*----------------------------------*\
  =========                 |
  \\      /  F ield         | OpenFOAM: The Open Source CFD Toolbox
   \\    /   O peration     | Website:  https://openfoam.org
    \\  /    A nd           | Version:  11
     \\/     M anipulation  |
\*---------------------------------------------------------------------------*/
FoamFile
{
    format      ascii;
    class       volScalarField;
    location    "9";
    object      nut;
}
// * * * * * * * * * * * * * * * * * * * * * * * * * * * * * * * * * * * * * //

dimensions      [0 2 -1 0 0 0 0];

internalField   nonuniform List<scalar> 
400
(
0.000472491
0.000313975
0.000234423
0.000193814
0.000168824
0.000151548
0.000139577
0.000131653
0.000127467
0.00012559
0.000125592
0.000127475
0.000131666
0.000139597
0.000151575
0.000168859
0.000193857
0.000234472
0.000314027
0.000472552
0.000317374
0.000302893
0.000251205
0.00020714
0.00017693
0.000156442
0.000142628
0.000133981
0.000129363
0.000127309
0.000127311
0.000129371
0.000133995
0.000142649
0.00015647
0.000176966
0.000207184
0.000251253
0.000302939
0.000317411
0.000237189
0.000253276
0.000240362
0.000212072
0.000183836
0.000161721
0.000146241
0.000136774
0.000131678
0.000129416
0.000129419
0.000131686
0.000136788
0.000146263
0.000161751
0.000183873
0.000212115
0.000240404
0.000253312
0.000237215
0.00019585
0.000209258
0.000213284
0.000203596
0.000185157
0.000165607
0.000149835
0.000139827
0.000134334
0.000131882
0.000131885
0.000134343
0.000139842
0.000149857
0.000165636
0.000185192
0.000203633
0.000213318
0.000209285
0.000195871
0.000170466
0.000178585
0.00018517
0.00018583
0.000178495
0.000165639
0.000152214
0.000142616
0.000137065
0.000134532
0.000134535
0.000137074
0.000142632
0.000152236
0.000165667
0.000178526
0.00018586
0.000185197
0.000178606
0.000170483
0.000152707
0.000157534
0.00016264
0.000166234
0.000165879
0.000160457
0.000151814
0.000144173
0.000139274
0.00013693
0.000136933
0.000139283
0.000144187
0.000151833
0.000160481
0.000165904
0.000166258
0.00016266
0.00015755
0.00015272
0.000140014
0.000142988
0.000146466
0.000149894
0.00015208
0.000151566
0.000147968
0.000143438
0.000140024
0.000138258
0.000138261
0.000140032
0.000143451
0.000147984
0.000151585
0.000152099
0.000149911
0.000146481
0.000143
0.000140024
0.000131893
0.000133895
0.000136344
0.000139067
0.000141582
0.000143013
0.000142533
0.000140686
0.000138898
0.000137869
0.000137872
0.000138904
0.000140696
0.000142546
0.000143027
0.000141596
0.000139079
0.000136354
0.000133903
0.000131899
0.000126634
0.000128141
0.000130021
0.000132224
0.000134556
0.000136558
0.000137558
0.000137381
0.000136794
0.000136369
0.000136371
0.000136799
0.000137389
0.000137567
0.000136569
0.000134566
0.000132233
0.000130028
0.000128146
0.000126637
0.000123043
0.000124265
0.000125805
0.00012766
0.000129754
0.000131851
0.000133481
0.000134223
0.000134394
0.000134382
0.000134383
0.000134398
0.000134228
0.000133487
0.000131858
0.000129761
0.000127666
0.000125809
0.000124267
0.000123044
0.00012052
0.000121564
0.000122889
0.000124509
0.0001264
0.000128439
0.000130298
0.000131496
0.000132096
0.000132332
0.000132333
0.000132099
0.0001315
0.000130302
0.000128444
0.000126405
0.000124512
0.000122891
0.000121564
0.000120519
0.000118729
0.000119659
0.000120841
0.000122299
0.000124033
0.000125975
0.000127882
0.00012928
0.000130096
0.000130467
0.000130467
0.000130098
0.000129282
0.000127885
0.000125977
0.000124035
0.000122301
0.000120841
0.000119657
0.000118727
0.000117469
0.000118323
0.00011941
0.000120756
0.000122371
0.000124215
0.000126096
0.000127559
0.00012847
0.000128903
0.000128903
0.000128471
0.00012756
0.000126098
0.000124216
0.000122372
0.000120756
0.000119409
0.000118321
0.000117465
0.000116615
0.000117419
0.000118442
0.000119709
0.000121237
0.000122997
0.000124824
0.000126286
0.000127223
0.000127678
0.000127678
0.000127223
0.000126287
0.000124825
0.000122997
0.000121237
0.000119708
0.000118439
0.000117415
0.00011661
0.000116141
0.000116917
0.000117902
0.000119122
0.000120593
0.00012229
0.000124062
0.000125493
0.00012642
0.000126875
0.000126875
0.00012642
0.000125493
0.000124062
0.00012229
0.000120592
0.00011912
0.000117898
0.000116912
0.000116134
0.000115925
0.000116688
0.000117655
0.000118851
0.000120291
0.000121947
0.000123672
0.000125067
0.000125973
0.000126418
0.000126418
0.000125973
0.000125066
0.000123671
0.000121946
0.000120289
0.000118849
0.00011765
0.000116682
0.000115917
0.000115837
0.000116596
0.000117559
0.000118749
0.000120171
0.000121797
0.000123483
0.000124843
0.000125727
0.000126162
0.000126161
0.000125727
0.000124843
0.000123482
0.000121796
0.000120169
0.000118745
0.000117554
0.000116589
0.000115828
0.000115797
0.000116565
0.000117539
0.000118732
0.000120144
0.000121745
0.000123397
0.000124727
0.00012559
0.000126014
0.000126014
0.000125589
0.000124726
0.000123396
0.000121744
0.000120142
0.000118729
0.000117534
0.000116557
0.000115787
0.000115756
0.000116559
0.00011756
0.000118761
0.000120163
0.000121741
0.000123363
0.000124667
0.000125512
0.000125927
0.000125927
0.000125512
0.000124667
0.000123362
0.00012174
0.000120161
0.000118757
0.000117555
0.000116551
0.000115745
0.000115666
0.000116576
0.000117609
0.00011881
0.000120201
0.000121759
0.000123355
0.000124638
0.000125468
0.000125875
0.000125875
0.000125468
0.000124638
0.000123354
0.000121758
0.000120198
0.000118807
0.000117603
0.000116568
0.000115657
)
;

boundaryField
{
    defaultFaces
    {
        type            empty;
    }
}


// ************************************************************************* //
