/*--------------------------------*- C++ -*----------------------------------*\
  =========                 |
  \\      /  F ield         | OpenFOAM: The Open Source CFD Toolbox
   \\    /   O peration     | Website:  https://openfoam.org
    \\  /    A nd           | Version:  11
     \\/     M anipulation  |
\*---------------------------------------------------------------------------*/
FoamFile
{
    format      ascii;
    class       volScalarField;
    location    "1";
    object      epsilon;
}
// * * * * * * * * * * * * * * * * * * * * * * * * * * * * * * * * * * * * * //

dimensions      [0 2 -3 0 0 0 0];

internalField   nonuniform List<scalar> 
400
(
0.00252324
0.00167246
0.00124802
0.00103547
0.000912235
0.000838602
0.00080171
0.000785316
0.000780882
0.000779774
0.000779774
0.000780883
0.000785322
0.00080173
0.000838677
0.000912453
0.0010359
0.00124846
0.00167238
0.00252235
0.00169201
0.00161378
0.00133716
0.00110482
0.000952689
0.000861556
0.00081552
0.000796818
0.000791405
0.000790074
0.000790075
0.000791407
0.000796824
0.000815543
0.000861641
0.000952914
0.00110518
0.00133739
0.00161356
0.00169144
0.0012666
0.00135026
0.00128038
0.00113106
0.000987921
0.000887052
0.000832289
0.000810574
0.000803956
0.000802284
0.000802284
0.000803957
0.00081058
0.000832313
0.000887136
0.000988108
0.00113129
0.00128044
0.00135006
0.00126629
0.00105382
0.00112134
0.00114036
0.00108888
0.000996111
0.000906976
0.000849733
0.000825755
0.000818053
0.000816028
0.000816029
0.000818055
0.000825761
0.000849754
0.000907041
0.000996229
0.00108898
0.00114034
0.00112122
0.00105366
0.000933433
0.00097133
0.00100193
0.00100339
0.000967248
0.000910746
0.000863313
0.000840478
0.000832502
0.000830281
0.000830282
0.000832503
0.000840483
0.000863328
0.000910784
0.000967302
0.00100342
0.00100191
0.000971267
0.000933357
0.000863243
0.000882976
0.000904197
0.000918838
0.000916491
0.000895107
0.000867952
0.000851643
0.000845153
0.000843188
0.000843189
0.000845154
0.000851646
0.00086796
0.000895122
0.000916509
0.000918843
0.000904181
0.000882943
0.000863203
0.000828842
0.000839276
0.000851765
0.00086425
0.000872389
0.000871765
0.00086383
0.000856794
0.000853405
0.000852257
0.000852257
0.000853406
0.000856795
0.000863833
0.00087177
0.000872395
0.000864252
0.000851755
0.000839255
0.000828815
0.00081798
0.000824705
0.000833002
0.000842298
0.000851104
0.00085697
0.000858405
0.000857504
0.000856693
0.000856355
0.000856356
0.000856693
0.000857504
0.000858406
0.000856973
0.000851109
0.0008423
0.000832995
0.000824688
0.000817957
0.000815067
0.000820666
0.000827538
0.000835413
0.000843625
0.000850836
0.000855422
0.000857162
0.000857659
0.000857783
0.000857783
0.000857659
0.000857163
0.000855424
0.000850838
0.00084363
0.000835415
0.000827532
0.000820651
0.000815045
0.000814499
0.000819767
0.000826192
0.000833562
0.000841411
0.000848781
0.00085423
0.000856879
0.000857892
0.000858214
0.000858214
0.000857892
0.00085688
0.000854231
0.000848784
0.000841416
0.000833565
0.000826186
0.000819753
0.000814477
0.000814576
0.000819753
0.000826035
0.00083323
0.000840916
0.000848241
0.000853862
0.000856762
0.000857937
0.000858328
0.000858328
0.000857937
0.000856762
0.000853863
0.000848244
0.000840921
0.000833233
0.00082603
0.000819738
0.000814555
0.000814831
0.00081998
0.000826206
0.000833328
0.000840928
0.000848184
0.000853795
0.000856733
0.000857942
0.000858349
0.000858349
0.000857942
0.000856733
0.000853797
0.000848187
0.000840933
0.00083333
0.000826201
0.000819966
0.00081481
0.000815154
0.000820292
0.000826483
0.000833555
0.00084109
0.000848274
0.000853825
0.000856732
0.000857929
0.000858331
0.000858331
0.000857929
0.000856732
0.000853826
0.000848276
0.000841095
0.000833558
0.000826478
0.000820276
0.000815132
0.000815545
0.000820675
0.000826836
0.000833861
0.000841332
0.00084843
0.000853888
0.000856724
0.000857879
0.000858261
0.000858262
0.000857879
0.000856725
0.00085389
0.000848433
0.000841337
0.000833863
0.000826828
0.000820657
0.000815519
0.000816002
0.000821126
0.00082726
0.000834243
0.000841647
0.000848644
0.000853968
0.000856682
0.000857755
0.000858097
0.000858097
0.000857756
0.000856683
0.000853971
0.000848648
0.000841654
0.000834246
0.000827249
0.0008211
0.000815966
0.000816458
0.000821581
0.000827702
0.000834661
0.000842009
0.000848893
0.000854049
0.000856601
0.000857562
0.000857847
0.000857848
0.000857563
0.000856603
0.000854053
0.0008489
0.000842019
0.000834665
0.000827687
0.00082154
0.0008164
0.00081684
0.000821979
0.000828121
0.000835089
0.000842394
0.000849155
0.000854119
0.000856491
0.000857327
0.00085755
0.00085755
0.000857328
0.000856494
0.000854125
0.000849165
0.000842409
0.000835098
0.000828102
0.000821919
0.000816749
0.000817042
0.000822254
0.000828493
0.000835515
0.000842781
0.000849407
0.000854172
0.000856366
0.000857079
0.00085724
0.00085724
0.00085708
0.000856369
0.000854178
0.00084942
0.000842801
0.000835529
0.000828476
0.00082218
0.000816925
0.000816933
0.000822408
0.000828856
0.000835944
0.000843154
0.000849636
0.000854208
0.00085624
0.000856842
0.000856949
0.000856949
0.000856843
0.000856243
0.000854214
0.000849648
0.000843174
0.000835959
0.000828836
0.000822335
0.000816823
0.000816348
0.000822586
0.000829266
0.000836368
0.000843494
0.000849834
0.000854232
0.000856126
0.000856632
0.000856691
0.000856692
0.000856634
0.000856128
0.000854238
0.000849846
0.000843512
0.000836378
0.000829243
0.000822519
0.000816255
)
;

boundaryField
{
    defaultFaces
    {
        type            empty;
    }
}


// ************************************************************************* //
