/*--------------------------------*- C++ -*----------------------------------*\
  =========                 |
  \\      /  F ield         | OpenFOAM: The Open Source CFD Toolbox
   \\    /   O peration     | Website:  https://openfoam.org
    \\  /    A nd           | Version:  11
     \\/     M anipulation  |
\*---------------------------------------------------------------------------*/
FoamFile
{
    format      ascii;
    class       volScalarField;
    location    "1";
    object      k;
}
// * * * * * * * * * * * * * * * * * * * * * * * * * * * * * * * * * * * * * //

dimensions      [0 2 -2 0 0 0 0];

internalField   nonuniform List<scalar> 
400
(
0.00364338
0.00241794
0.00180524
0.00149695
0.00131572
0.00120378
0.00114331
0.00111422
0.00110496
0.00110223
0.00110223
0.00110496
0.00111423
0.00114333
0.00120387
0.00131596
0.00149739
0.0018057
0.0024179
0.00364256
0.00244603
0.00233308
0.00193407
0.00159762
0.00137488
0.00123764
0.00116369
0.00113089
0.00112
0.00111686
0.00111686
0.00112
0.0011309
0.00116372
0.00123775
0.00137513
0.001598
0.00193433
0.00233289
0.00244547
0.00183181
0.00195282
0.00185191
0.00163557
0.00142622
0.00127514
0.00118846
0.00115096
0.00113809
0.00113436
0.00113436
0.0011381
0.00115097
0.00118849
0.00127524
0.00142643
0.00163582
0.001852
0.00195264
0.00183148
0.00152306
0.00162122
0.00164887
0.00157398
0.00143784
0.00130424
0.00121421
0.0011733
0.00115869
0.00115437
0.00115437
0.00115869
0.00117331
0.00121424
0.00130433
0.00143798
0.00157411
0.00164887
0.0016211
0.00152289
0.00134594
0.00140156
0.00144636
0.00144838
0.00139468
0.00130913
0.0012341
0.00119516
0.0011802
0.00117558
0.00117558
0.0011802
0.00119517
0.00123412
0.00130918
0.00139475
0.00144842
0.00144634
0.00140149
0.00134585
0.00123926
0.00126866
0.00130016
0.00132175
0.00131776
0.00128432
0.00124025
0.00121186
0.00119954
0.00119546
0.00119546
0.00119954
0.00121187
0.00124026
0.00128434
0.00131778
0.00132176
0.00130014
0.00126862
0.00123921
0.0011832
0.00119891
0.00121767
0.00123635
0.00124829
0.00124644
0.00123246
0.00121943
0.00121266
0.00121017
0.00121017
0.00121266
0.00121943
0.00123246
0.00124645
0.0012483
0.00123636
0.00121766
0.00119888
0.00118316
0.00116295
0.00117295
0.00118532
0.00119923
0.00121238
0.00122093
0.00122237
0.00122005
0.00121813
0.00121728
0.00121728
0.00121813
0.00122005
0.00122237
0.00122094
0.00121239
0.00119923
0.00118531
0.00117292
0.00116291
0.00115651
0.00116464
0.0011747
0.00118633
0.0011986
0.00120951
0.0012165
0.0012191
0.00121979
0.00121994
0.00121994
0.00121979
0.0012191
0.0012165
0.00120951
0.00119861
0.00118634
0.00117469
0.00116462
0.00115647
0.00115478
0.00116233
0.0011716
0.00118238
0.00119406
0.00120531
0.00121396
0.0012184
0.0012202
0.0012208
0.0012208
0.0012202
0.0012184
0.00121396
0.00120531
0.00119406
0.00118238
0.0011716
0.00116231
0.00115475
0.00115459
0.00116196
0.00117098
0.00118144
0.00119284
0.00120405
0.00121309
0.00121809
0.00122027
0.00122104
0.00122104
0.00122027
0.00121809
0.00121309
0.00120406
0.00119285
0.00118144
0.00117097
0.00116194
0.00115456
0.00115488
0.0011622
0.00117112
0.00118145
0.00119271
0.00120382
0.00121289
0.001218
0.00122027
0.00122109
0.00122109
0.00122027
0.001218
0.00121289
0.00120383
0.00119272
0.00118146
0.00117111
0.00116217
0.00115485
0.00115535
0.00116265
0.00117151
0.00118177
0.00119293
0.00120393
0.00121291
0.00121798
0.00122024
0.00122106
0.00122106
0.00122025
0.00121798
0.00121291
0.00120394
0.00119294
0.00118178
0.00117151
0.00116263
0.00115532
0.00115595
0.00116324
0.00117206
0.00118225
0.00119331
0.00120418
0.00121301
0.00121797
0.00122016
0.00122094
0.00122094
0.00122016
0.00121797
0.00121301
0.00120419
0.00119332
0.00118225
0.00117205
0.00116321
0.00115591
0.00115665
0.00116393
0.00117271
0.00118284
0.00119381
0.00120452
0.00121314
0.00121791
0.00121996
0.00122068
0.00122068
0.00121997
0.00121791
0.00121315
0.00120453
0.00119381
0.00118284
0.00117269
0.00116389
0.0011566
0.00115733
0.00116461
0.00117337
0.00118347
0.00119435
0.00120491
0.00121327
0.00121779
0.00121967
0.0012203
0.0012203
0.00121968
0.00121779
0.00121328
0.00120492
0.00119437
0.00118347
0.00117335
0.00116455
0.00115725
0.00115789
0.00116519
0.00117399
0.0011841
0.00119492
0.00120529
0.00121338
0.00121763
0.00121933
0.00121986
0.00121987
0.00121933
0.00121764
0.00121339
0.00120531
0.00119494
0.00118411
0.00117396
0.00116511
0.00115777
0.00115818
0.00116559
0.00117453
0.00118472
0.00119548
0.00120566
0.00121347
0.00121746
0.00121898
0.00121942
0.00121942
0.00121898
0.00121746
0.00121347
0.00120568
0.00119551
0.00118473
0.0011745
0.00116549
0.00115803
0.00115804
0.00116582
0.00117505
0.00118533
0.00119602
0.00120599
0.00121352
0.00121728
0.00121864
0.001219
0.001219
0.00121864
0.00121728
0.00121353
0.00120601
0.00119604
0.00118535
0.00117502
0.00116572
0.00115789
0.00115722
0.00116607
0.00117563
0.00118593
0.0011965
0.00120628
0.00121356
0.00121712
0.00121834
0.00121864
0.00121864
0.00121834
0.00121712
0.00121357
0.00120629
0.00119652
0.00118594
0.0011756
0.00116598
0.00115709
)
;

boundaryField
{
    defaultFaces
    {
        type            empty;
    }
}


// ************************************************************************* //
