/*--------------------------------*- C++ -*----------------------------------*\
  =========                 |
  \\      /  F ield         | OpenFOAM: The Open Source CFD Toolbox
   \\    /   O peration     | Website:  https://openfoam.org
    \\  /    A nd           | Version:  11
     \\/     M anipulation  |
\*---------------------------------------------------------------------------*/
FoamFile
{
    format      ascii;
    class       volScalarField;
    location    "1";
    object      nut;
}
// * * * * * * * * * * * * * * * * * * * * * * * * * * * * * * * * * * * * * //

dimensions      [0 2 -1 0 0 0 0];

internalField   nonuniform List<scalar> 
400
(
0.000473472
0.000314613
0.000235011
0.000194768
0.00017079
0.000155517
0.000146741
0.000142279
0.000140719
0.000140223
0.000140223
0.000140719
0.00014228
0.000146744
0.000155527
0.000170812
0.000194803
0.000235048
0.000314618
0.000473423
0.000318246
0.000303569
0.000251769
0.00020792
0.000178575
0.000160011
0.000149445
0.000144452
0.000142651
0.000142092
0.000142092
0.000142652
0.000144453
0.000149449
0.000160022
0.000178598
0.000207952
0.000251792
0.00030356
0.000318208
0.00023843
0.000254185
0.000241072
0.000212859
0.000185307
0.000164971
0.000152733
0.000147086
0.000144999
0.000144351
0.000144351
0.000145
0.000147087
0.000152737
0.000164982
0.000185328
0.000212883
0.000241083
0.000254175
0.000238405
0.000198112
0.000210954
0.000214572
0.000204767
0.000186791
0.000168797
0.000156151
0.00015004
0.000147705
0.000146969
0.000146969
0.000147706
0.000150041
0.000156155
0.000168806
0.000186806
0.000204781
0.000214575
0.000210945
0.000198097
0.000174667
0.000182011
0.000187914
0.000188164
0.000180989
0.00016936
0.000158772
0.000152956
0.00015058
0.000149803
0.000149803
0.00015058
0.000152957
0.000158775
0.000169366
0.000180998
0.00018817
0.000187913
0.000182005
0.000174658
0.000160116
0.000164053
0.000168256
0.00017112
0.000170524
0.00016585
0.0001595
0.0001552
0.000153228
0.000152541
0.000152541
0.000153228
0.0001552
0.000159502
0.000165853
0.000170527
0.000171121
0.000168255
0.000164048
0.00016011
0.000152015
0.000154137
0.000156669
0.00015918
0.000160754
0.000160394
0.000158255
0.0001562
0.000155083
0.000154655
0.000154655
0.000155083
0.0001562
0.000158256
0.000160395
0.000160756
0.00015918
0.000156667
0.000154134
0.00015201
0.000148806
0.000150141
0.000151799
0.000153666
0.000155431
0.000156553
0.00015666
0.00015623
0.000155884
0.00015573
0.00015573
0.000155884
0.00015623
0.00015666
0.000156554
0.000155432
0.000153667
0.000151797
0.000150138
0.000148802
0.000147688
0.000148751
0.000150074
0.000151619
0.000153265
0.000154744
0.000155699
0.000156049
0.000156135
0.00015615
0.00015615
0.000156135
0.000156049
0.000155699
0.000154745
0.000153266
0.000151619
0.000150073
0.000148748
0.000147684
0.000147351
0.000148323
0.000149529
0.000150944
0.000152505
0.000154044
0.000155266
0.00015592
0.000156196
0.000156291
0.000156291
0.000156196
0.00015592
0.000155266
0.000154044
0.000152506
0.000150945
0.000149527
0.00014832
0.000147347
0.000147287
0.000148232
0.000149397
0.000150765
0.000152284
0.00015382
0.000155111
0.000155862
0.000156206
0.000156333
0.000156333
0.000156206
0.000155862
0.000155111
0.000153821
0.000152285
0.000150765
0.000149395
0.000148229
0.000147283
0.000147316
0.000148251
0.000149401
0.000150751
0.000152249
0.000153773
0.00015507
0.000155844
0.000156206
0.000156341
0.000156341
0.000156206
0.000155844
0.000155071
0.000153773
0.00015225
0.000150751
0.0001494
0.000148248
0.000147311
0.000147378
0.00014831
0.000149453
0.000150791
0.000152276
0.000153784
0.000155071
0.00015584
0.000156201
0.000156337
0.000156337
0.000156201
0.00015584
0.000155071
0.000153785
0.000152277
0.000150792
0.000149451
0.000148307
0.000147373
0.00014746
0.000148391
0.000149528
0.000150857
0.000152329
0.00015382
0.000155086
0.000155838
0.000156189
0.000156319
0.000156319
0.000156189
0.000155838
0.000155086
0.00015382
0.00015233
0.000150858
0.000149526
0.000148387
0.000147455
0.000147556
0.000148486
0.000149618
0.000150939
0.000152398
0.000153868
0.000155105
0.00015583
0.000156161
0.000156282
0.000156282
0.000156162
0.00015583
0.000155106
0.000153869
0.000152399
0.00015094
0.000149615
0.000148481
0.000147549
0.000147647
0.000148577
0.000149707
0.000151025
0.000152472
0.00015392
0.000155124
0.000155815
0.000156122
0.000156231
0.000156231
0.000156123
0.000155815
0.000155124
0.000153921
0.000152474
0.000151025
0.000149704
0.00014857
0.000147636
0.00014772
0.000148654
0.000149788
0.000151108
0.000152548
0.000153972
0.000155139
0.000155795
0.000156077
0.000156173
0.000156173
0.000156078
0.000155795
0.00015514
0.000153974
0.00015255
0.000151108
0.000149784
0.000148643
0.000147705
0.000147759
0.000148706
0.000149859
0.000151188
0.000152621
0.000154021
0.00015515
0.000155772
0.000156031
0.000156115
0.000156115
0.000156032
0.000155773
0.000155151
0.000154023
0.000152624
0.000151189
0.000149855
0.000148694
0.00014774
0.000147742
0.000148737
0.000149926
0.000151267
0.00015269
0.000154063
0.000155157
0.000155749
0.000155988
0.000156062
0.000156062
0.000155988
0.00015575
0.000155159
0.000154065
0.000152693
0.000151268
0.000149922
0.000148724
0.000147724
0.000147638
0.000148769
0.00015
0.000151344
0.000152752
0.0001541
0.000155162
0.000155729
0.00015595
0.000156015
0.000156015
0.00015595
0.00015573
0.000155164
0.000154102
0.000152754
0.000151345
0.000149996
0.000148758
0.000147622
)
;

boundaryField
{
    defaultFaces
    {
        type            empty;
    }
}


// ************************************************************************* //
