/*--------------------------------*- C++ -*----------------------------------*\
  =========                 |
  \\      /  F ield         | OpenFOAM: The Open Source CFD Toolbox
   \\    /   O peration     | Website:  https://openfoam.org
    \\  /    A nd           | Version:  11
     \\/     M anipulation  |
\*---------------------------------------------------------------------------*/
FoamFile
{
    format      ascii;
    class       volScalarField;
    location    "1.5";
    object      epsilon;
}
// * * * * * * * * * * * * * * * * * * * * * * * * * * * * * * * * * * * * * //

dimensions      [0 2 -3 0 0 0 0];

internalField   nonuniform List<scalar> 
400
(
0.00147364
0.000977207
0.000728841
0.000603061
0.000527771
0.000479287
0.000450627
0.000435354
0.000429508
0.000427471
0.000427472
0.000429511
0.000435365
0.000450657
0.000479362
0.000527924
0.000603312
0.000729101
0.000977236
0.00147333
0.000988492
0.000942866
0.000781092
0.000644146
0.00055227
0.000493614
0.000459345
0.000442273
0.000435543
0.000433234
0.000433235
0.000435547
0.000442284
0.000459378
0.000493696
0.000552427
0.000644367
0.000781257
0.000942826
0.000988285
0.000739351
0.000788571
0.000747738
0.000659661
0.000573475
0.00050939
0.000469903
0.000450657
0.000442897
0.000440233
0.000440234
0.000442901
0.00045067
0.000469937
0.000509472
0.000573613
0.000659816
0.000747817
0.000788527
0.000739244
0.000613167
0.000653409
0.000664908
0.00063443
0.00057824
0.000521559
0.000480833
0.000460051
0.000451398
0.000448388
0.000448389
0.000451402
0.000460064
0.000480866
0.00052163
0.00057834
0.000634518
0.000664939
0.000653384
0.00061312
0.000539321
0.000562588
0.000581348
0.000582395
0.00056005
0.000523349
0.000489131
0.000469279
0.000460448
0.000457273
0.000457274
0.000460452
0.00046929
0.000489159
0.0005234
0.000560109
0.000582436
0.000581359
0.000562576
0.000539299
0.000492925
0.000505651
0.00051922
0.000528547
0.000526873
0.000512029
0.000491216
0.000476257
0.000468785
0.000465925
0.000465926
0.000468788
0.000476265
0.000491233
0.000512057
0.0005269
0.000528563
0.000519222
0.000505641
0.00049291
0.000466418
0.000473441
0.000481781
0.000490043
0.000495235
0.000494029
0.000486661
0.000479097
0.000474596
0.0004727
0.000472701
0.000474598
0.000479101
0.00048667
0.00049404
0.000495245
0.000490047
0.000481778
0.00047343
0.000466404
0.000455321
0.000459747
0.000465225
0.000471377
0.000477147
0.000480702
0.000480702
0.000478718
0.00047705
0.000476238
0.000476238
0.000477051
0.00047872
0.000480706
0.000480707
0.000477151
0.000471377
0.00046522
0.000459737
0.000455308
0.000451142
0.000454583
0.000458869
0.000463873
0.00046919
0.000473913
0.00047683
0.000477703
0.000477751
0.000477671
0.000477671
0.000477751
0.000477704
0.000476832
0.000473916
0.000469193
0.000463873
0.000458864
0.000454574
0.000451129
0.000449715
0.000452784
0.000456597
0.000461092
0.000466062
0.000470975
0.000474882
0.000476976
0.000477862
0.000478172
0.000478172
0.000477863
0.000476977
0.000474884
0.000470977
0.000466064
0.000461092
0.000456592
0.000452774
0.000449703
0.00044934
0.000452273
0.000455904
0.00046019
0.000464979
0.000469873
0.000474065
0.000476606
0.000477838
0.00047832
0.00047832
0.000477838
0.000476607
0.000474067
0.000469875
0.000464981
0.000460189
0.000455899
0.000452264
0.000449328
0.000449356
0.000452242
0.000455801
0.000459998
0.000464697
0.000469541
0.000473785
0.000476456
0.000477805
0.000478349
0.000478349
0.000477805
0.000476457
0.000473786
0.000469543
0.000464699
0.000459998
0.000455796
0.000452232
0.000449344
0.000449528
0.000452396
0.000455922
0.000460074
0.000464719
0.00046951
0.000473727
0.000476407
0.000477775
0.000478332
0.000478332
0.000477776
0.000476408
0.000473729
0.000469512
0.00046472
0.000460073
0.000455916
0.000452386
0.000449515
0.000449785
0.000452645
0.00045615
0.00046027
0.00046487
0.000469603
0.000473756
0.000476389
0.000477729
0.000478273
0.000478273
0.00047773
0.00047639
0.000473758
0.000469605
0.000464871
0.000460268
0.000456142
0.000452633
0.000449769
0.000450089
0.000452947
0.000456436
0.000460531
0.000465088
0.000469754
0.000473817
0.000476363
0.000477643
0.000478157
0.000478157
0.000477644
0.000476365
0.00047382
0.000469757
0.00046509
0.000460528
0.000456425
0.000452929
0.000450066
0.000450376
0.000453235
0.000456719
0.000460801
0.000465324
0.00046992
0.000473877
0.000476319
0.000477524
0.000477999
0.000477999
0.000477525
0.000476321
0.000473881
0.000469925
0.000465327
0.000460797
0.000456704
0.000453209
0.000450343
0.000450604
0.000453474
0.000456972
0.00046106
0.000465559
0.000470084
0.000473927
0.000476259
0.000477386
0.000477821
0.000477822
0.000477387
0.000476261
0.000473932
0.00047009
0.000465564
0.000461057
0.000456954
0.000453438
0.000450556
0.000450724
0.000453635
0.000457189
0.000461308
0.000465786
0.000470235
0.000473963
0.000476191
0.000477245
0.000477643
0.000477644
0.000477246
0.000476194
0.000473969
0.000470242
0.000465793
0.000461307
0.000457171
0.000453593
0.000450664
0.000450672
0.000453728
0.000457396
0.000461553
0.000466
0.000470368
0.000473988
0.000476123
0.000477113
0.000477479
0.000477479
0.000477114
0.000476126
0.000473993
0.000470375
0.000466006
0.000461551
0.000457377
0.000453686
0.000450614
0.000450355
0.00045383
0.000457626
0.000461789
0.00046619
0.000470481
0.000474005
0.000476061
0.000476996
0.000477335
0.000477335
0.000476998
0.000476064
0.00047401
0.000470488
0.000466196
0.000461786
0.000457605
0.000453791
0.000450304
)
;

boundaryField
{
    defaultFaces
    {
        type            empty;
    }
}


// ************************************************************************* //
