/*--------------------------------*- C++ -*----------------------------------*\
  =========                 |
  \\      /  F ield         | OpenFOAM: The Open Source CFD Toolbox
   \\    /   O peration     | Website:  https://openfoam.org
    \\  /    A nd           | Version:  11
     \\/     M anipulation  |
\*---------------------------------------------------------------------------*/
FoamFile
{
    format      ascii;
    class       volScalarField;
    location    "1.5";
    object      k;
}
// * * * * * * * * * * * * * * * * * * * * * * * * * * * * * * * * * * * * * //

dimensions      [0 2 -2 0 0 0 0];

internalField   nonuniform List<scalar> 
400
(
0.0028098
0.00186504
0.00139168
0.00115139
0.00100651
0.000911505
0.000853038
0.000820201
0.000806519
0.000801407
0.000801409
0.000806527
0.000820222
0.00085309
0.000911627
0.00100674
0.00115176
0.00139206
0.00186514
0.00280946
0.00188647
0.00179955
0.00149144
0.00123004
0.0010536
0.000939206
0.000869939
0.00083348
0.000817961
0.000812252
0.000812254
0.00081797
0.000833502
0.000869997
0.000939339
0.00105384
0.00123037
0.00149171
0.00179955
0.00188623
0.00141154
0.00150559
0.00142782
0.00125967
0.00109427
0.000969628
0.000890378
0.000849615
0.000831981
0.000825512
0.000825515
0.00083199
0.000849639
0.00089044
0.000969763
0.00109448
0.00125992
0.00142797
0.00150557
0.00141141
0.00117038
0.0012475
0.00126957
0.00121128
0.00110326
0.000992974
0.000911486
0.000867739
0.000848299
0.000841104
0.000841106
0.000848308
0.000867764
0.000911546
0.000993093
0.00110343
0.00121144
0.00126965
0.00124748
0.00117033
0.00102818
0.00107302
0.00110913
0.00111113
0.00106788
0.00099606
0.000927353
0.000885561
0.000865819
0.000858302
0.000858304
0.000865827
0.000885583
0.000927404
0.000996149
0.00106799
0.00111121
0.00110916
0.00107301
0.00102816
0.00093721
0.00096197
0.000988304
0.00100634
0.00100287
0.000973271
0.000930832
0.000898949
0.000882119
0.000875333
0.000875334
0.000882125
0.000898967
0.000930867
0.000973323
0.00100292
0.00100637
0.000988315
0.000961961
0.000937189
0.000883168
0.000896969
0.00091332
0.000929455
0.000939442
0.000936534
0.000920782
0.000904047
0.000893588
0.000888975
0.000888976
0.000893592
0.000904057
0.0009208
0.000936558
0.000939463
0.000929466
0.000913317
0.000896954
0.000883145
0.00085877
0.00086746
0.000878215
0.000890279
0.00090153
0.000908238
0.000907541
0.000902602
0.000898404
0.000896292
0.000896293
0.000898406
0.000902607
0.000907549
0.000908248
0.000901539
0.000890281
0.000878207
0.000867443
0.000858746
0.000848661
0.000855328
0.000863656
0.000873413
0.000883805
0.000893011
0.000898548
0.00089992
0.000899678
0.000899324
0.000899324
0.000899679
0.000899922
0.000898553
0.000893017
0.00088381
0.000873413
0.000863647
0.00085531
0.000848637
0.000844742
0.000850601
0.000857919
0.000866603
0.000876286
0.000885961
0.000893749
0.00089797
0.000899766
0.000900393
0.000900394
0.000899767
0.000897972
0.000893753
0.000885965
0.00087629
0.000866602
0.000857909
0.000850583
0.000844719
0.000843443
0.000848992
0.000855901
0.000864123
0.000873421
0.000883088
0.000891586
0.000896924
0.000899614
0.000900702
0.000900702
0.000899615
0.000896926
0.000891589
0.000883092
0.000873424
0.000864122
0.000855892
0.000848974
0.00084342
0.000843228
0.000848663
0.000855406
0.000863428
0.00087253
0.000882106
0.000890765
0.000896467
0.000899486
0.000900752
0.000900753
0.000899487
0.000896469
0.000890768
0.00088211
0.000872533
0.000863426
0.000855396
0.000848644
0.000843204
0.000843471
0.000848863
0.000855531
0.000863455
0.000872442
0.000881915
0.000890542
0.000896302
0.000899395
0.000900707
0.000900708
0.000899396
0.000896304
0.000890546
0.000881919
0.000872444
0.000863452
0.00085552
0.000848843
0.000843445
0.000843945
0.000849321
0.000855945
0.000863804
0.0008727
0.000882058
0.000890566
0.000896242
0.000899289
0.000900582
0.000900582
0.000899291
0.000896244
0.00089057
0.000882062
0.000872702
0.000863799
0.00085593
0.000849296
0.000843914
0.000844531
0.000849901
0.000856497
0.000864307
0.000873121
0.00088235
0.000890681
0.000896188
0.000899117
0.00090035
0.00090035
0.000899119
0.000896191
0.000890686
0.000882355
0.000873123
0.000864299
0.000856476
0.000849867
0.000844488
0.000845082
0.000850455
0.000857041
0.000864826
0.000873577
0.000882673
0.000890801
0.000896104
0.000898886
0.000900044
0.000900044
0.000898889
0.000896108
0.000890807
0.000882681
0.00087358
0.000864818
0.000857013
0.000850406
0.00084502
0.000845513
0.000850908
0.000857522
0.000865322
0.000874028
0.000882989
0.0008909
0.000895993
0.000898625
0.000899706
0.000899707
0.000898628
0.000895998
0.000890908
0.000882999
0.000874034
0.000865314
0.000857489
0.000850844
0.000845428
0.000845741
0.000851216
0.000857935
0.000865793
0.00087446
0.000883277
0.000890972
0.000895867
0.00089836
0.000899369
0.00089937
0.000898362
0.000895872
0.000890982
0.000883289
0.000874468
0.000865787
0.000857901
0.000851141
0.000845637
0.000845649
0.000851393
0.000858327
0.000866254
0.000874862
0.00088353
0.000891021
0.00089574
0.000898111
0.000899059
0.00089906
0.000898114
0.000895746
0.000891031
0.000883542
0.000874871
0.000866248
0.000858291
0.000851318
0.000845547
0.000845059
0.000851587
0.000858758
0.000866698
0.000875221
0.000883744
0.000891054
0.000895626
0.000897892
0.000898789
0.000898789
0.000897895
0.000895631
0.000891064
0.000883756
0.000875228
0.00086669
0.000858719
0.000851514
0.000844967
)
;

boundaryField
{
    defaultFaces
    {
        type            empty;
    }
}


// ************************************************************************* //
