/*--------------------------------*- C++ -*----------------------------------*\
  =========                 |
  \\      /  F ield         | OpenFOAM: The Open Source CFD Toolbox
   \\    /   O peration     | Website:  https://openfoam.org
    \\  /    A nd           | Version:  11
     \\/     M anipulation  |
\*---------------------------------------------------------------------------*/
FoamFile
{
    format      ascii;
    class       volScalarField;
    location    "1.5";
    object      nut;
}
// * * * * * * * * * * * * * * * * * * * * * * * * * * * * * * * * * * * * * //

dimensions      [0 2 -1 0 0 0 0];

internalField   nonuniform List<scalar> 
400
(
0.000482173
0.000320357
0.000239159
0.000197845
0.000172755
0.000156014
0.000145332
0.000139072
0.000136302
0.00013522
0.000135221
0.000136303
0.000139076
0.00014534
0.000156032
0.000172784
0.000197889
0.000239205
0.00032038
0.000482159
0.000324018
0.000309116
0.000256303
0.000211394
0.000180903
0.000160834
0.000148279
0.000141365
0.000138254
0.000137057
0.000137057
0.000138255
0.000141369
0.000148288
0.000160852
0.000180934
0.000211436
0.000256339
0.000309127
0.000324004
0.000242536
0.000258712
0.000245381
0.000216489
0.000187921
0.000166113
0.000151839
0.000144159
0.000140659
0.000139318
0.000139318
0.00014066
0.000144163
0.000151849
0.000166132
0.00018795
0.000216523
0.000245405
0.000258718
0.000242528
0.000201056
0.000214356
0.000218171
0.000208138
0.000189448
0.000170143
0.000155506
0.000147304
0.000143477
0.000142
0.000142
0.000143478
0.000147308
0.000155516
0.000170161
0.000189472
0.000208161
0.000218185
0.00021436
0.000201053
0.000176415
0.000184191
0.000190444
0.000190789
0.000183258
0.000170617
0.000158237
0.0001504
0.000146526
0.000144993
0.000144994
0.000146528
0.000150404
0.000158245
0.000170631
0.000183274
0.000190803
0.000190452
0.000184193
0.000176413
0.000160375
0.000164708
0.000169306
0.000172443
0.000171801
0.0001665
0.00015875
0.000152711
0.00014939
0.000148004
0.000148004
0.000149392
0.000152715
0.000158756
0.000166509
0.00017181
0.00017245
0.000169309
0.000164708
0.000160373
0.000150506
0.000152944
0.000155826
0.000158659
0.000160388
0.000159786
0.000156794
0.000153533
0.000151423
0.000150465
0.000150465
0.000151424
0.000153535
0.000156797
0.00015979
0.000160392
0.000158662
0.000155826
0.000152942
0.000150503
0.000145774
0.000147307
0.000149204
0.000151331
0.000153303
0.000154442
0.000154205
0.000153163
0.000152273
0.000151816
0.000151816
0.000152273
0.000153164
0.000154207
0.000154444
0.000153305
0.000151331
0.000149203
0.000147304
0.00014577
0.000143681
0.000144842
0.000146297
0.000148007
0.000149833
0.000151446
0.000152392
0.000152578
0.000152481
0.000152386
0.000152386
0.000152481
0.000152578
0.000152393
0.000151447
0.000149833
0.000148007
0.000146295
0.000144839
0.000143676
0.000142808
0.000143815
0.000145078
0.000146587
0.000148283
0.000149994
0.000151387
0.000152149
0.000152475
0.000152589
0.000152589
0.000152475
0.00015215
0.000151387
0.000149995
0.000148283
0.000146587
0.000145076
0.000143812
0.000142804
0.000142488
0.000143433
0.000144616
0.000146035
0.000147658
0.000149372
0.000150914
0.000151913
0.000152431
0.000152646
0.000152646
0.000152432
0.000151913
0.000150915
0.000149373
0.000147658
0.000146035
0.000144614
0.00014343
0.000142484
0.00014241
0.000143332
0.000144481
0.000145861
0.000147446
0.000149146
0.000150726
0.000151806
0.000152398
0.000152654
0.000152654
0.000152399
0.000151806
0.000150726
0.000149146
0.000147446
0.00014586
0.000144479
0.000143328
0.000142406
0.000142438
0.00014335
0.000144485
0.000145846
0.000147409
0.000149091
0.000150669
0.000151765
0.000152377
0.000152644
0.000152644
0.000152377
0.000151766
0.000150669
0.000149092
0.00014741
0.000145845
0.000144483
0.000143347
0.000142433
0.000142517
0.000143426
0.000144553
0.000145902
0.000147449
0.00014911
0.000150668
0.000151751
0.000152356
0.000152621
0.000152621
0.000152356
0.000151751
0.000150668
0.000149111
0.000147449
0.000145901
0.00014455
0.000143422
0.000142511
0.000142618
0.000143527
0.000144648
0.000145989
0.000147522
0.00014916
0.000150687
0.000151741
0.000152325
0.000152579
0.000152579
0.000152325
0.000151741
0.000150688
0.000149161
0.000147522
0.000145987
0.000144645
0.000143521
0.000142611
0.000142713
0.000143622
0.000144743
0.000146079
0.000147601
0.000149217
0.000150708
0.000151726
0.000152285
0.000152526
0.000152526
0.000152285
0.000151727
0.00015071
0.000149218
0.000147601
0.000146077
0.000144738
0.000143614
0.000142703
0.000142787
0.0001437
0.000144825
0.000146164
0.000147679
0.000149272
0.000150726
0.000151708
0.00015224
0.000152468
0.000152468
0.000152241
0.000151709
0.000150728
0.000149273
0.000147679
0.000146162
0.000144819
0.000143689
0.000142773
0.000142826
0.000143752
0.000144896
0.000146244
0.000147753
0.000149321
0.000150739
0.000151687
0.000152195
0.00015241
0.000152411
0.000152196
0.000151688
0.000150741
0.000149323
0.000147754
0.000146243
0.00014489
0.00014374
0.00014281
0.000142811
0.000143783
0.000144962
0.000146323
0.000147821
0.000149365
0.000150748
0.000151666
0.000152153
0.000152358
0.000152358
0.000152154
0.000151667
0.000150749
0.000149366
0.000147822
0.000146321
0.000144956
0.000143771
0.000142795
0.000142712
0.000143816
0.000145035
0.000146398
0.000147882
0.000149401
0.000150754
0.000151647
0.000152116
0.000152312
0.000152312
0.000152117
0.000151648
0.000150755
0.000149403
0.000147883
0.000146396
0.000145029
0.000143804
0.000142697
)
;

boundaryField
{
    defaultFaces
    {
        type            empty;
    }
}


// ************************************************************************* //
