/*--------------------------------*- C++ -*----------------------------------*\
  =========                 |
  \\      /  F ield         | OpenFOAM: The Open Source CFD Toolbox
   \\    /   O peration     | Website:  https://openfoam.org
    \\  /    A nd           | Version:  11
     \\/     M anipulation  |
\*---------------------------------------------------------------------------*/
FoamFile
{
    format      ascii;
    class       volScalarField;
    location    "7.5";
    object      epsilon;
}
// * * * * * * * * * * * * * * * * * * * * * * * * * * * * * * * * * * * * * //

dimensions      [0 2 -3 0 0 0 0];

internalField   nonuniform List<scalar> 
400
(
9.561e-05
6.3494e-05
4.7382e-05
3.91352e-05
3.40458e-05
3.052e-05
2.80722e-05
2.64524e-05
2.5596e-05
2.52121e-05
2.52129e-05
2.55985e-05
2.6457e-05
2.80796e-05
3.05314e-05
3.40623e-05
3.91571e-05
4.74068e-05
6.35129e-05
9.56205e-05
6.41922e-05
6.12392e-05
5.07565e-05
4.18174e-05
3.5679e-05
3.15067e-05
2.86877e-05
2.6922e-05
2.59785e-05
2.5559e-05
2.55598e-05
2.59811e-05
2.69268e-05
2.86955e-05
3.15188e-05
3.56961e-05
4.18391e-05
5.07781e-05
6.12535e-05
6.4198e-05
4.79714e-05
5.11927e-05
4.85568e-05
4.28095e-05
3.70726e-05
3.25737e-05
2.94191e-05
2.7488e-05
2.64481e-05
2.59867e-05
2.59876e-05
2.64508e-05
2.7493e-05
2.94272e-05
3.2586e-05
3.70892e-05
4.28285e-05
4.85734e-05
5.12028e-05
4.79761e-05
3.96065e-05
4.22903e-05
4.30805e-05
4.10977e-05
3.73436e-05
3.33645e-05
3.01519e-05
2.81119e-05
2.6992e-05
2.64922e-05
2.64931e-05
2.69948e-05
2.8117e-05
3.016e-05
3.33763e-05
3.73582e-05
4.11126e-05
4.30925e-05
4.22978e-05
3.9611e-05
3.44816e-05
3.61012e-05
3.74092e-05
3.75189e-05
3.60115e-05
3.33868e-05
3.06492e-05
2.86927e-05
2.75613e-05
2.70453e-05
2.70462e-05
2.75641e-05
2.86976e-05
3.06569e-05
3.33971e-05
3.60232e-05
3.75299e-05
3.74176e-05
3.61069e-05
3.44855e-05
3.09244e-05
3.1881e-05
3.28907e-05
3.35928e-05
3.34957e-05
3.23743e-05
3.06038e-05
2.90429e-05
2.80437e-05
2.75662e-05
2.7567e-05
2.80463e-05
2.90474e-05
3.06103e-05
3.23824e-05
3.3504e-05
3.36002e-05
3.28964e-05
3.1885e-05
3.09272e-05
2.84269e-05
2.90103e-05
2.96919e-05
3.03599e-05
3.07752e-05
3.06447e-05
2.98937e-05
2.89618e-05
2.82628e-05
2.79021e-05
2.79028e-05
2.82649e-05
2.89653e-05
2.98986e-05
3.06503e-05
3.07807e-05
3.03647e-05
2.96954e-05
2.90126e-05
2.84283e-05
2.68833e-05
2.72724e-05
2.77476e-05
2.82746e-05
2.87566e-05
2.90186e-05
2.88971e-05
2.85071e-05
2.81364e-05
2.79247e-05
2.79253e-05
2.8138e-05
2.85096e-05
2.89004e-05
2.90223e-05
2.876e-05
2.82774e-05
2.77495e-05
2.72733e-05
2.68836e-05
2.59294e-05
2.6221e-05
2.65842e-05
2.7009e-05
2.74564e-05
2.78353e-05
2.80133e-05
2.7961e-05
2.7833e-05
2.77432e-05
2.77435e-05
2.78341e-05
2.79627e-05
2.80155e-05
2.78376e-05
2.74584e-05
2.70106e-05
2.6585e-05
2.6221e-05
2.5929e-05
2.53152e-05
2.5552e-05
2.58502e-05
2.62088e-05
2.66124e-05
2.70142e-05
2.73221e-05
2.74565e-05
2.74822e-05
2.74758e-05
2.74761e-05
2.7483e-05
2.74576e-05
2.73235e-05
2.70156e-05
2.66136e-05
2.62096e-05
2.58504e-05
2.55514e-05
2.53143e-05
2.49124e-05
2.51166e-05
2.53753e-05
2.56911e-05
2.60591e-05
2.64544e-05
2.68128e-05
2.70419e-05
2.71553e-05
2.71994e-05
2.71996e-05
2.71558e-05
2.70426e-05
2.68136e-05
2.64552e-05
2.60597e-05
2.56915e-05
2.5375e-05
2.51156e-05
2.49111e-05
2.46479e-05
2.48323e-05
2.50664e-05
2.53544e-05
2.56961e-05
2.60776e-05
2.64512e-05
2.6724e-05
2.6883e-05
2.69549e-05
2.6955e-05
2.68832e-05
2.67244e-05
2.64517e-05
2.6078e-05
2.56963e-05
2.53543e-05
2.50658e-05
2.48311e-05
2.46464e-05
2.44777e-05
2.46497e-05
2.48683e-05
2.51381e-05
2.54611e-05
2.58288e-05
2.62026e-05
2.64924e-05
2.66724e-05
2.6758e-05
2.6758e-05
2.66726e-05
2.64926e-05
2.62028e-05
2.58289e-05
2.54611e-05
2.51378e-05
2.48674e-05
2.46483e-05
2.44758e-05
2.43738e-05
2.45384e-05
2.4747e-05
2.5005e-05
2.53148e-05
2.56704e-05
2.60383e-05
2.63315e-05
2.65188e-05
2.66098e-05
2.66098e-05
2.65189e-05
2.63316e-05
2.60384e-05
2.56704e-05
2.53145e-05
2.50044e-05
2.47459e-05
2.45367e-05
2.43717e-05
2.43247e-05
2.44853e-05
2.46883e-05
2.49392e-05
2.52407e-05
2.55871e-05
2.5947e-05
2.62365e-05
2.64234e-05
2.65149e-05
2.6515e-05
2.64235e-05
2.62365e-05
2.5947e-05
2.55869e-05
2.52402e-05
2.49384e-05
2.46869e-05
2.44832e-05
2.43222e-05
2.43078e-05
2.44667e-05
2.46671e-05
2.49146e-05
2.52112e-05
2.5551e-05
2.59032e-05
2.61867e-05
2.63702e-05
2.64602e-05
2.64603e-05
2.63703e-05
2.61867e-05
2.59032e-05
2.55508e-05
2.52107e-05
2.49137e-05
2.46654e-05
2.4464e-05
2.43047e-05
2.43044e-05
2.4463e-05
2.46633e-05
2.49099e-05
2.52038e-05
2.55382e-05
2.58833e-05
2.61604e-05
2.63397e-05
2.64277e-05
2.64277e-05
2.63397e-05
2.61604e-05
2.58832e-05
2.5538e-05
2.52033e-05
2.49088e-05
2.46613e-05
2.44599e-05
2.43006e-05
2.43037e-05
2.44642e-05
2.46669e-05
2.49146e-05
2.52067e-05
2.55364e-05
2.58747e-05
2.61459e-05
2.63211e-05
2.6407e-05
2.6407e-05
2.63211e-05
2.61459e-05
2.58747e-05
2.55362e-05
2.52062e-05
2.49135e-05
2.46649e-05
2.44608e-05
2.42992e-05
2.4298e-05
2.4466e-05
2.46746e-05
2.4924e-05
2.52142e-05
2.55394e-05
2.58717e-05
2.61376e-05
2.63091e-05
2.63932e-05
2.63932e-05
2.63091e-05
2.61376e-05
2.58716e-05
2.55392e-05
2.52137e-05
2.4923e-05
2.46726e-05
2.44624e-05
2.42934e-05
2.42798e-05
2.44703e-05
2.46858e-05
2.49355e-05
2.52233e-05
2.55443e-05
2.58713e-05
2.61329e-05
2.63013e-05
2.63837e-05
2.63837e-05
2.63013e-05
2.61329e-05
2.58713e-05
2.55441e-05
2.52227e-05
2.49344e-05
2.46836e-05
2.44669e-05
2.42757e-05
)
;

boundaryField
{
    defaultFaces
    {
        type            empty;
    }
}


// ************************************************************************* //
