/*--------------------------------*- C++ -*----------------------------------*\
  =========                 |
  \\      /  F ield         | OpenFOAM: The Open Source CFD Toolbox
   \\    /   O peration     | Website:  https://openfoam.org
    \\  /    A nd           | Version:  11
     \\/     M anipulation  |
\*---------------------------------------------------------------------------*/
FoamFile
{
    format      ascii;
    class       volScalarField;
    location    "7.5";
    object      k;
}
// * * * * * * * * * * * * * * * * * * * * * * * * * * * * * * * * * * * * * //

dimensions      [0 2 -2 0 0 0 0];

internalField   nonuniform List<scalar> 
400
(
0.00071102
0.000472324
0.000352543
0.000291305
0.000253553
0.000227414
0.000209271
0.000197256
0.000190902
0.000188052
0.000188057
0.000190918
0.000197285
0.000209315
0.000227479
0.000253644
0.000291423
0.000352677
0.000472438
0.000711109
0.000477493
0.000455609
0.000377727
0.000311314
0.000265733
0.000234772
0.00021386
0.000200757
0.000193752
0.000190635
0.00019064
0.000193768
0.000200786
0.000213906
0.000234841
0.000265828
0.000311432
0.000377848
0.0004557
0.000477545
0.00035686
0.000380932
0.0003614
0.000318726
0.000276124
0.000242723
0.000219307
0.000204969
0.000197244
0.000193815
0.000193821
0.000197261
0.000205
0.000219356
0.000242793
0.000276217
0.000318832
0.000361498
0.000380998
0.000356898
0.000294681
0.000314732
0.000320683
0.000306001
0.000278143
0.000248605
0.000224753
0.000209601
0.000201279
0.000197562
0.000197567
0.000201296
0.000209633
0.000224802
0.000248673
0.000278227
0.000306088
0.000320756
0.000314782
0.000294714
0.000256573
0.000268683
0.000278479
0.000279359
0.000268209
0.000248742
0.000228422
0.000213888
0.000205478
0.00020164
0.000201646
0.000205496
0.000213919
0.000228468
0.000248803
0.000268278
0.000279426
0.000278533
0.000268721
0.000256601
0.000230064
0.000237229
0.000244796
0.000250081
0.000249419
0.000241133
0.000228006
0.000216416
0.000208989
0.000205436
0.000205441
0.000209005
0.000216445
0.000228047
0.000241183
0.000249471
0.000250128
0.000244834
0.000237256
0.000230084
0.00021135
0.000215731
0.000220851
0.000225877
0.000229027
0.000228113
0.000222571
0.000215661
0.000210467
0.000207785
0.000207789
0.000210482
0.000215684
0.000222602
0.000228149
0.000229062
0.000225909
0.000220875
0.000215748
0.000211362
0.000199656
0.000202585
0.000206163
0.000210134
0.000213776
0.000215782
0.000214924
0.000212048
0.0002093
0.000207727
0.00020773
0.00020931
0.000212065
0.000214946
0.000215807
0.0002138
0.000210154
0.000206177
0.000202593
0.000199661
0.00019232
0.000194516
0.000197253
0.000200456
0.000203833
0.000206704
0.000208074
0.000207711
0.00020677
0.000206106
0.000206109
0.000206778
0.000207723
0.000208089
0.000206721
0.000203848
0.000200468
0.00019726
0.000194519
0.000192319
0.000187503
0.000189284
0.000191529
0.00019423
0.000197272
0.000200304
0.000202635
0.000203661
0.000203866
0.000203823
0.000203825
0.000203871
0.000203669
0.000202645
0.000200315
0.000197281
0.000194237
0.000191532
0.000189283
0.000187499
0.000184269
0.000185801
0.000187744
0.000190116
0.000192881
0.000195854
0.000198553
0.000200279
0.000201136
0.000201469
0.000201471
0.000201139
0.000200285
0.000198559
0.00019586
0.000192886
0.000190119
0.000187743
0.000185797
0.000184263
0.000182088
0.000183466
0.000185216
0.000187371
0.000189929
0.000192788
0.00019559
0.000197636
0.00019883
0.000199369
0.00019937
0.000198832
0.000197639
0.000195593
0.000192791
0.000189931
0.000187371
0.000185213
0.000183459
0.000182079
0.000180638
0.000181919
0.000183546
0.000185556
0.000187965
0.00019071
0.000193503
0.00019567
0.000197016
0.000197657
0.000197657
0.000197018
0.000195671
0.000193504
0.000190711
0.000187965
0.000185554
0.00018354
0.00018191
0.000180627
0.000179717
0.000180937
0.000182485
0.000184399
0.000186702
0.000189347
0.000192087
0.000194274
0.000195672
0.000196351
0.000196352
0.000195673
0.000194274
0.000192088
0.000189347
0.0001867
0.000184396
0.000182478
0.000180927
0.000179704
0.000179252
0.000180439
0.000181941
0.000183799
0.000186033
0.000188604
0.000191279
0.000193434
0.000194827
0.00019551
0.00019551
0.000194827
0.000193434
0.000191279
0.000188602
0.00018603
0.000183793
0.000181932
0.000180426
0.000179236
0.000179069
0.000180241
0.000181722
0.000183552
0.000185748
0.000188266
0.000190882
0.00019299
0.000194357
0.000195028
0.000195028
0.000194357
0.00019299
0.000190881
0.000188264
0.000185744
0.000183546
0.000181711
0.000180225
0.00017905
0.000179011
0.000180181
0.00018166
0.000183483
0.000185657
0.000188135
0.000190696
0.000192756
0.000194091
0.000194747
0.000194747
0.000194091
0.000192756
0.000190695
0.000188134
0.000185653
0.000183476
0.000181648
0.000180163
0.000178989
0.00017899
0.000180174
0.000181671
0.000183501
0.000185662
0.000188104
0.000190615
0.00019263
0.000193935
0.000194575
0.000194575
0.000193934
0.00019263
0.000190614
0.000188102
0.000185658
0.000183494
0.000181658
0.000180153
0.000178964
0.000178942
0.000180181
0.000181721
0.000183563
0.00018571
0.000188119
0.000190584
0.000192561
0.000193838
0.000194465
0.000194465
0.000193838
0.000192561
0.000190583
0.000188117
0.000185706
0.000183556
0.000181708
0.00018016
0.000178915
0.000178807
0.000180211
0.000181801
0.000183646
0.000185774
0.000188152
0.000190579
0.000192524
0.000193778
0.000194392
0.000194392
0.000193778
0.000192524
0.000190578
0.000188151
0.00018577
0.000183638
0.000181787
0.000180191
0.000178783
)
;

boundaryField
{
    defaultFaces
    {
        type            empty;
    }
}


// ************************************************************************* //
