/*--------------------------------*- C++ -*----------------------------------*\
  =========                 |
  \\      /  F ield         | OpenFOAM: The Open Source CFD Toolbox
   \\    /   O peration     | Website:  https://openfoam.org
    \\  /    A nd           | Version:  11
     \\/     M anipulation  |
\*---------------------------------------------------------------------------*/
FoamFile
{
    format      ascii;
    class       volScalarField;
    location    "7.5";
    object      nut;
}
// * * * * * * * * * * * * * * * * * * * * * * * * * * * * * * * * * * * * * //

dimensions      [0 2 -1 0 0 0 0];

internalField   nonuniform List<scalar> 
400
(
0.000475887
0.00031622
0.000236077
0.000195151
0.000169947
0.000152508
0.000140405
0.000132385
0.000128142
0.000126238
0.00012624
0.000128151
0.0001324
0.000140428
0.000152538
0.000169987
0.000195199
0.000236133
0.000316279
0.000475953
0.000319664
0.000305069
0.000252992
0.000208585
0.000178124
0.000157446
0.000143485
0.000134733
0.000130053
0.000127969
0.000127972
0.000130062
0.000134749
0.000143508
0.000157478
0.000178165
0.000208635
0.000253046
0.00030512
0.000319705
0.000238922
0.00025511
0.000242086
0.000213569
0.000185096
0.000162778
0.000147136
0.000137555
0.000132391
0.000130096
0.0001301
0.0001324
0.000137572
0.00014716
0.000162812
0.000185138
0.000213617
0.000242133
0.00025515
0.00023895
0.000197324
0.000210806
0.000214839
0.000205055
0.00018645
0.000166716
0.000150778
0.00014065
0.000135083
0.000132596
0.000132599
0.000135093
0.000140667
0.000150803
0.000166749
0.00018649
0.000205097
0.000214877
0.000210836
0.000197345
0.000171822
0.000179971
0.000186574
0.000187206
0.000179782
0.000166788
0.000153214
0.000143498
0.000137872
0.000135302
0.000135305
0.000137881
0.000143515
0.000153238
0.000166819
0.000179816
0.00018724
0.000186603
0.000179994
0.000171839
0.000154041
0.000158871
0.000163976
0.000167555
0.000167152
0.000161643
0.000152883
0.000145138
0.000140169
0.00013779
0.000137793
0.000140179
0.000145154
0.000152906
0.000161669
0.00016718
0.000167581
0.000163998
0.000158888
0.000154055
0.000141422
0.000144382
0.000147844
0.000151247
0.000153396
0.000152822
0.000149142
0.00014453
0.000141058
0.000139262
0.000139265
0.000141066
0.000144544
0.00014916
0.000152843
0.000153416
0.000151266
0.000147859
0.000144394
0.000141431
0.000133452
0.000135435
0.00013786
0.000140552
0.000143029
0.00014441
0.000143866
0.000141957
0.000140123
0.000139072
0.000139074
0.00014013
0.000141968
0.000143879
0.000144424
0.000143043
0.000140565
0.00013787
0.000135443
0.000133457
0.00012838
0.000129868
0.000131724
0.000133897
0.000136191
0.000138148
0.000139095
0.00013887
0.000138248
0.000137806
0.000137808
0.000138253
0.000138878
0.000139105
0.000138159
0.000136201
0.000133905
0.00013173
0.000129872
0.000128382
0.000124991
0.000126197
0.000127717
0.000129547
0.00013161
0.000133669
0.000135257
0.000135961
0.000136107
0.000136081
0.000136082
0.00013611
0.000135966
0.000135263
0.000133676
0.000131616
0.000129552
0.00012772
0.000126198
0.00012499
0.000122669
0.000123703
0.000125015
0.000126618
0.000128488
0.0001305
0.000132328
0.000133499
0.000134081
0.000134308
0.000134308
0.000134083
0.000133503
0.000132332
0.000130504
0.000128491
0.00012662
0.000125016
0.000123702
0.000122666
0.000121067
0.000121993
0.000123171
0.000124622
0.000126346
0.000128273
0.000130163
0.000131545
0.000132351
0.000132715
0.000132716
0.000132352
0.000131547
0.000130166
0.000128275
0.000126347
0.000124623
0.00012317
0.00012199
0.000121063
0.000119975
0.000120833
0.000121923
0.000123271
0.000124888
0.000126731
0.000128609
0.000130067
0.000130974
0.000131405
0.000131405
0.000130975
0.000130068
0.00012861
0.000126732
0.000124888
0.00012327
0.00012192
0.000120828
0.00011997
0.000119261
0.000120075
0.000121108
0.000122387
0.000123927
0.000125698
0.000127534
0.000129002
0.000129941
0.000130397
0.000130397
0.000129941
0.000129002
0.000127534
0.000125697
0.000123925
0.000122385
0.000121104
0.000120069
0.000119254
0.000118884
0.000119673
0.000120673
0.000121911
0.000123401
0.000125119
0.000126908
0.000128352
0.000129286
0.000129744
0.000129744
0.000129286
0.000128352
0.000126908
0.000125118
0.000123399
0.000121908
0.000120668
0.000119666
0.000118876
0.000118723
0.000119502
0.000120486
0.000121704
0.000123167
0.000124848
0.000126595
0.000128006
0.000128922
0.000129372
0.000129372
0.000128922
0.000128006
0.000126594
0.000124846
0.000123165
0.000121701
0.000120481
0.000119493
0.000118713
0.000118664
0.00011944
0.000120423
0.000121636
0.000123084
0.000124736
0.000126447
0.000127825
0.000128719
0.000129159
0.000129159
0.000128719
0.000127824
0.000126446
0.000124735
0.000123081
0.000121632
0.000120417
0.000119431
0.000118653
0.000118639
0.000119425
0.000120419
0.000121637
0.000123075
0.000124704
0.00012638
0.000127729
0.000128603
0.000129032
0.000129032
0.000128602
0.000127728
0.000126379
0.000124702
0.000123073
0.000121632
0.000120413
0.000119415
0.000118626
0.000118603
0.000119425
0.000120448
0.000121674
0.000123103
0.000124708
0.000126355
0.000127678
0.000128533
0.000128953
0.000128953
0.000128533
0.000127677
0.000126354
0.000124707
0.0001231
0.000121669
0.000120441
0.000119415
0.00011859
0.000118513
0.000119444
0.0001205
0.000121727
0.000123144
0.000124729
0.00012635
0.000127651
0.000128491
0.000128904
0.000128903
0.000128491
0.000127651
0.000126349
0.000124728
0.000123141
0.000121723
0.000120493
0.000119434
0.000118501
)
;

boundaryField
{
    defaultFaces
    {
        type            empty;
    }
}


// ************************************************************************* //
