/*--------------------------------*- C++ -*----------------------------------*\
  =========                 |
  \\      /  F ield         | OpenFOAM: The Open Source CFD Toolbox
   \\    /   O peration     | Website:  https://openfoam.org
    \\  /    A nd           | Version:  11
     \\/     M anipulation  |
\*---------------------------------------------------------------------------*/
FoamFile
{
    format      ascii;
    class       volScalarField;
    location    "3.5";
    object      epsilon;
}
// * * * * * * * * * * * * * * * * * * * * * * * * * * * * * * * * * * * * * //

dimensions      [0 2 -3 0 0 0 0];

internalField   nonuniform List<scalar> 
400
(
0.000382683
0.000253997
0.000189467
0.000156485
0.000136205
0.00012228
0.0001128
0.000106699
0.000103594
0.000102239
0.000102241
0.000103598
0.000106707
0.000112813
0.000122302
0.000136241
0.000156536
0.000189524
0.00025403
0.000382682
0.000256866
0.000245033
0.000203034
0.000167252
0.00014275
0.000126223
0.000115254
0.00010858
0.00010514
0.000103653
0.000103654
0.000105144
0.000108588
0.000115268
0.000126247
0.000142788
0.000167301
0.000203079
0.000245055
0.000256866
0.000192034
0.000204891
0.000194308
0.000171289
0.000148371
0.000130515
0.000118194
0.000110865
0.000107054
0.00010541
0.000105411
0.000107058
0.000110874
0.000118209
0.000130539
0.000148406
0.00017133
0.00019434
0.000204907
0.00019204
0.000158796
0.000169446
0.000172542
0.000164568
0.00014956
0.000133758
0.000121187
0.000113424
0.000109303
0.000107514
0.000107515
0.000109307
0.000113433
0.000121202
0.000133781
0.00014959
0.000164598
0.000172565
0.00016946
0.000158805
0.000138699
0.000145047
0.000150161
0.000150514
0.000144456
0.000134036
0.000123336
0.000115893
0.000111726
0.000109876
0.000109878
0.000111731
0.000115902
0.00012335
0.000134056
0.000144479
0.000150535
0.000150178
0.000145059
0.000138709
0.00012512
0.000128787
0.000132662
0.000135326
0.000134849
0.000130385
0.000123501
0.000117603
0.000113945
0.00011224
0.000112241
0.000113949
0.00011761
0.000123512
0.0001304
0.000134864
0.00013534
0.000132673
0.000128796
0.000125127
0.000116089
0.000118257
0.000120797
0.000123282
0.000124791
0.000124214
0.000121324
0.000117866
0.000115355
0.000114091
0.000114092
0.000115358
0.000117872
0.000121332
0.000124223
0.000124801
0.00012329
0.000120803
0.000118262
0.000116093
0.000111051
0.000112457
0.000114182
0.000116098
0.000117846
0.000118778
0.000118314
0.000116924
0.000115645
0.000114931
0.000114932
0.000115648
0.000116928
0.000118319
0.000118783
0.000117851
0.000116102
0.000114185
0.000112459
0.000111052
0.00010833
0.000109378
0.000110687
0.00011222
0.000113837
0.000115214
0.000115881
0.000115748
0.000115356
0.000115081
0.000115082
0.000115358
0.00011575
0.000115884
0.000115217
0.00011384
0.000112222
0.000110688
0.000109378
0.00010833
0.000106856
0.000107721
0.000108812
0.000110122
0.000111597
0.000113072
0.000114223
0.000114765
0.000114916
0.000114931
0.000114931
0.000114917
0.000114766
0.000114224
0.000113073
0.000111598
0.000110122
0.000108812
0.00010772
0.000106855
0.000106074
0.000106845
0.000107821
0.000109006
0.000110381
0.000111857
0.0001132
0.000114074
0.000114524
0.000114707
0.000114707
0.000114524
0.000114075
0.000113201
0.000111857
0.000110382
0.000109006
0.00010782
0.000106844
0.000106073
0.000105682
0.000106406
0.00010732
0.000108437
0.00010975
0.000111204
0.000112615
0.00011364
0.000114238
0.000114509
0.000114509
0.000114238
0.00011364
0.000112616
0.000111204
0.00010975
0.000108437
0.000107319
0.000106404
0.00010568
0.00010551
0.00010621
0.000107092
0.000108172
0.000109448
0.000110877
0.000112305
0.000113388
0.000114051
0.000114362
0.000114362
0.000114051
0.000113388
0.000112305
0.000110877
0.000109447
0.000108171
0.000107091
0.000106208
0.000105508
0.000105463
0.000106151
0.000107017
0.000108075
0.000109327
0.000110736
0.000112155
0.000113251
0.000113933
0.000114258
0.000114258
0.000113933
0.000113251
0.000112155
0.000110736
0.000109327
0.000108074
0.000107015
0.000106149
0.000105461
0.000105489
0.000106172
0.000107029
0.000108076
0.000109313
0.000110702
0.000112101
0.000113183
0.000113859
0.000114183
0.000114183
0.000113859
0.000113183
0.000112101
0.000110702
0.000109312
0.000108075
0.000107027
0.000106169
0.000105485
0.000105535
0.000106218
0.000107073
0.000108115
0.000109342
0.000110714
0.000112087
0.000113146
0.000113807
0.000114122
0.000114123
0.000113807
0.000113146
0.000112087
0.000110714
0.000109342
0.000108113
0.00010707
0.000106214
0.00010553
0.000105577
0.000106262
0.000107121
0.000108165
0.000109387
0.000110741
0.000112088
0.000113121
0.000113763
0.00011407
0.00011407
0.000113763
0.000113121
0.000112088
0.000110741
0.000109386
0.000108163
0.000107118
0.000106257
0.000105571
0.0001056
0.000106295
0.000107167
0.000108218
0.000109436
0.000110773
0.000112092
0.0001131
0.000113725
0.000114023
0.000114023
0.000113725
0.000113101
0.000112093
0.000110773
0.000109435
0.000108217
0.000107164
0.000106289
0.000105593
0.000105587
0.000106315
0.000107214
0.000108274
0.000109485
0.000110803
0.000112097
0.000113083
0.000113692
0.000113982
0.000113982
0.000113692
0.000113083
0.000112097
0.000110803
0.000109484
0.000108273
0.000107211
0.00010631
0.00010558
0.000105513
0.00010634
0.000107267
0.00010833
0.000109529
0.00011083
0.000112102
0.000113069
0.000113664
0.000113947
0.000113947
0.000113664
0.000113069
0.000112102
0.00011083
0.000109529
0.000108328
0.000107264
0.000106334
0.000105507
)
;

boundaryField
{
    defaultFaces
    {
        type            empty;
    }
}


// ************************************************************************* //
