/*--------------------------------*- C++ -*----------------------------------*\
  =========                 |
  \\      /  F ield         | OpenFOAM: The Open Source CFD Toolbox
   \\    /   O peration     | Website:  https://openfoam.org
    \\  /    A nd           | Version:  11
     \\/     M anipulation  |
\*---------------------------------------------------------------------------*/
FoamFile
{
    format      ascii;
    class       volScalarField;
    location    "3.5";
    object      k;
}
// * * * * * * * * * * * * * * * * * * * * * * * * * * * * * * * * * * * * * //

dimensions      [0 2 -2 0 0 0 0];

internalField   nonuniform List<scalar> 
400
(
0.00143614
0.000953683
0.000711579
0.000587843
0.000511677
0.000459179
0.000423142
0.000399676
0.000387538
0.000382181
0.000382185
0.000387552
0.000399703
0.000423189
0.000459255
0.000511791
0.000588003
0.000711757
0.000953806
0.00143619
0.000964406
0.000920103
0.000762627
0.000628377
0.000536337
0.000474054
0.000432405
0.000406756
0.000393336
0.000387464
0.000387468
0.000393352
0.000406786
0.000432455
0.000474134
0.000536457
0.000628532
0.000762776
0.000920194
0.000964437
0.000721105
0.000769532
0.000729909
0.000643572
0.00055749
0.000490222
0.000443487
0.000415355
0.000400511
0.000394031
0.000394036
0.000400527
0.000415386
0.000443539
0.000490304
0.000557605
0.000643705
0.000730022
0.000769601
0.00072114
0.000596318
0.00063646
0.000648186
0.00061831
0.000561937
0.000502401
0.000454737
0.000424958
0.00040893
0.000401891
0.000401896
0.000408947
0.000424989
0.00045479
0.00050248
0.000562037
0.000618412
0.000648269
0.000636517
0.000596359
0.000520719
0.000544688
0.000564009
0.000565404
0.000542646
0.000503348
0.000462739
0.000434177
0.000417976
0.000410702
0.000410708
0.000417992
0.000434208
0.000462789
0.000503416
0.000542724
0.000565478
0.000564069
0.000544734
0.000520757
0.00046936
0.000483253
0.000497926
0.000508023
0.000506252
0.000489361
0.000463141
0.000440436
0.000426178
0.000419466
0.000419471
0.000426193
0.000440464
0.000463183
0.000489414
0.000506307
0.000508074
0.000497968
0.000483286
0.000469388
0.000434791
0.000443039
0.000452698
0.000462138
0.000467865
0.000465634
0.000454509
0.000441076
0.000431211
0.000426197
0.000426201
0.000431223
0.000441098
0.00045454
0.000465669
0.0004679
0.000462169
0.000452723
0.000443059
0.000434807
0.000415042
0.00042041
0.000426989
0.000434288
0.000440931
0.00044443
0.000442529
0.000437001
0.000431886
0.00042901
0.000429013
0.000431894
0.000437016
0.000442549
0.000444451
0.000440951
0.000434306
0.000427002
0.000420419
0.000415049
0.00040403
0.000408025
0.000413015
0.000418856
0.000425009
0.000430213
0.000432656
0.000431982
0.00043032
0.000429164
0.000429165
0.000430326
0.000431991
0.000432667
0.000430225
0.00042502
0.000418865
0.000413021
0.000408028
0.000404031
0.00039781
0.000401094
0.000405236
0.000410213
0.000415815
0.000421406
0.000425734
0.000427705
0.000428189
0.000428185
0.000428186
0.000428192
0.000427711
0.00042574
0.000421413
0.000415821
0.000410216
0.000405237
0.000401093
0.000397807
0.000394338
0.000397247
0.000400929
0.000405411
0.00041062
0.000416214
0.000421308
0.000424609
0.000426292
0.000426969
0.00042697
0.000426294
0.000424612
0.000421311
0.000416217
0.000410623
0.000405412
0.000400928
0.000397244
0.000394333
0.000392474
0.000395186
0.00039862
0.000402823
0.000407782
0.00041329
0.000418665
0.000422585
0.00042488
0.000425923
0.000425923
0.000424881
0.000422586
0.000418666
0.000413291
0.000407783
0.000402822
0.000398617
0.000395181
0.000392468
0.000391559
0.000394169
0.000397469
0.000401517
0.000406322
0.000411738
0.000417185
0.000421359
0.000423932
0.000425149
0.000425149
0.000423932
0.000421359
0.000417185
0.000411738
0.000406321
0.000401515
0.000397465
0.000394163
0.000391552
0.000391209
0.000393769
0.000396997
0.000400956
0.000405664
0.000410995
0.000416418
0.000420657
0.000423325
0.000424607
0.000424607
0.000423325
0.000420657
0.000416418
0.000410994
0.000405661
0.000400952
0.000396991
0.000393761
0.0003912
0.000391208
0.000393747
0.00039694
0.000400852
0.000405498
0.000410754
0.000416104
0.000420302
0.000422959
0.000424242
0.000424242
0.000422959
0.000420302
0.000416104
0.000410753
0.000405495
0.000400847
0.000396932
0.000393737
0.000391196
0.000391334
0.000393868
0.00039705
0.000400943
0.000405552
0.000410743
0.000416001
0.000420117
0.000422719
0.000423976
0.000423976
0.00042272
0.000420117
0.000416001
0.000410742
0.000405549
0.000400937
0.00039704
0.000393855
0.000391318
0.000391468
0.000394011
0.000397204
0.000401103
0.000405691
0.000410819
0.000415979
0.00042
0.000422537
0.00042376
0.000423761
0.000422537
0.00042
0.000415979
0.000410818
0.000405689
0.000401098
0.000397193
0.000393994
0.000391447
0.000391542
0.000394121
0.000397364
0.000401291
0.000405862
0.000410924
0.000415984
0.000419914
0.000422386
0.000423576
0.000423577
0.000422386
0.000419914
0.000415984
0.000410923
0.00040586
0.000401286
0.000397353
0.000394102
0.000391517
0.00039149
0.000394193
0.000397535
0.000401493
0.000406038
0.000411031
0.000415998
0.000419845
0.000422259
0.00042342
0.00042342
0.00042226
0.000419846
0.000415998
0.000411031
0.000406035
0.000401488
0.000397523
0.000394174
0.000391465
0.000391217
0.000394281
0.000397732
0.000401696
0.000406202
0.00041113
0.000416013
0.000419791
0.000422155
0.00042329
0.00042329
0.000422155
0.000419791
0.000416013
0.000411129
0.000406199
0.00040169
0.00039772
0.000394263
0.000391195
)
;

boundaryField
{
    defaultFaces
    {
        type            empty;
    }
}


// ************************************************************************* //
