/*--------------------------------*- C++ -*----------------------------------*\
  =========                 |
  \\      /  F ield         | OpenFOAM: The Open Source CFD Toolbox
   \\    /   O peration     | Website:  https://openfoam.org
    \\  /    A nd           | Version:  11
     \\/     M anipulation  |
\*---------------------------------------------------------------------------*/
FoamFile
{
    format      ascii;
    class       volScalarField;
    location    "3.5";
    object      nut;
}
// * * * * * * * * * * * * * * * * * * * * * * * * * * * * * * * * * * * * * //

dimensions      [0 2 -1 0 0 0 0];

internalField   nonuniform List<scalar> 
400
(
0.000485059
0.000322272
0.000240523
0.000198744
0.000172998
0.000155186
0.000142859
0.00013474
0.000130478
0.000128577
0.000128578
0.000130483
0.000134749
0.000142873
0.000155208
0.000173029
0.000198786
0.000240571
0.000322313
0.000485094
0.000325879
0.00031095
0.000257809
0.000212477
0.00018136
0.000160236
0.000146006
0.00013714
0.000132435
0.000130354
0.000130355
0.00013244
0.000137149
0.000146021
0.00016026
0.000181393
0.000212519
0.000257853
0.000310983
0.0003259
0.000243704
0.00026012
0.000246769
0.000217624
0.000188525
0.000165718
0.000149765
0.00014005
0.000134855
0.000132563
0.000132565
0.000134861
0.00014006
0.000149781
0.000165742
0.000188558
0.000217662
0.000246804
0.000260146
0.00024372
0.000201539
0.000215156
0.000219153
0.000209078
0.000190022
0.000169834
0.00015357
0.000143294
0.000137692
0.000135206
0.000135208
0.000137698
0.000143305
0.000153586
0.000169858
0.000190051
0.00020911
0.00021918
0.000215176
0.000201555
0.000175945
0.00018409
0.000190659
0.000191154
0.000183459
0.000170121
0.000156252
0.000146392
0.000140731
0.000138163
0.000138165
0.000140736
0.000146402
0.000156267
0.000170142
0.000183483
0.000191177
0.000190679
0.000184106
0.000175958
0.000158463
0.000163199
0.0001682
0.000171644
0.000171052
0.0001653
0.000156315
0.000148454
0.00014346
0.000141088
0.000141089
0.000143465
0.000148463
0.000156329
0.000165317
0.00017107
0.000171661
0.000168214
0.000163211
0.000158473
0.000146559
0.000149383
0.000152687
0.000155915
0.00015787
0.000157095
0.000153244
0.000148553
0.000145072
0.000143289
0.000143291
0.000145077
0.00014856
0.000153254
0.000157107
0.000157882
0.000155925
0.000152696
0.00014939
0.000146565
0.000139606
0.00014145
0.000143707
0.000146209
0.000148481
0.000149663
0.000148967
0.000146995
0.000145162
0.000144124
0.000144126
0.000145165
0.000147001
0.000148974
0.00014967
0.000148488
0.000146216
0.000143712
0.000141453
0.000139609
0.000135619
0.000136989
0.000138701
0.000140703
0.000142808
0.000144579
0.000145383
0.000145098
0.000144472
0.00014404
0.000144041
0.000144474
0.000145101
0.000145388
0.000144584
0.000142813
0.000140706
0.000138703
0.000136991
0.00013562
0.000133289
0.000134411
0.000135826
0.000137527
0.000139441
0.000141348
0.000142812
0.000143458
0.000143592
0.000143571
0.000143572
0.000143594
0.00014346
0.000142815
0.000141351
0.000139444
0.000137528
0.000135827
0.000134411
0.000133289
0.000131938
0.000132925
0.000134176
0.000135701
0.000137476
0.000139385
0.000141122
0.000142244
0.00014281
0.000143036
0.000143037
0.000142811
0.000142245
0.000141123
0.000139386
0.000137477
0.000135701
0.000134176
0.000132924
0.000131937
0.000131179
0.000132093
0.000133254
0.000134677
0.000136362
0.00013824
0.000140081
0.000141429
0.000142221
0.000142582
0.000142582
0.000142222
0.00014143
0.000140081
0.000138241
0.000136362
0.000134677
0.000133253
0.000132092
0.000131177
0.000130781
0.000131657
0.000132768
0.000134134
0.000135762
0.000137607
0.000139477
0.000140922
0.00014182
0.000142247
0.000142247
0.00014182
0.000140922
0.000139477
0.000137607
0.000135762
0.000134133
0.000132766
0.000131655
0.000130778
0.000130605
0.000131462
0.000132545
0.000133878
0.000135471
0.000137286
0.00013915
0.000140624
0.00014156
0.000142014
0.000142014
0.000141561
0.000140624
0.00013915
0.000137286
0.00013547
0.000133877
0.000132543
0.000131459
0.000130602
0.000130573
0.000131422
0.000132492
0.000133807
0.000135377
0.000137167
0.000139008
0.000140471
0.000141407
0.000141863
0.000141863
0.000141407
0.000140471
0.000139007
0.000137167
0.000135377
0.000133806
0.000132489
0.000131418
0.000130569
0.0001306
0.000131446
0.000132512
0.00013382
0.000135378
0.000137145
0.000138955
0.000140392
0.000141312
0.00014176
0.00014176
0.000141312
0.000140392
0.000138955
0.000137145
0.000135377
0.000133818
0.000132509
0.000131442
0.000130594
0.000130637
0.000131486
0.000132555
0.000133866
0.000135416
0.000137162
0.00013894
0.000140346
0.000141244
0.000141681
0.000141681
0.000141244
0.000140346
0.000138939
0.000137162
0.000135415
0.000133864
0.000132552
0.000131481
0.00013063
0.000130658
0.000131519
0.000132605
0.000133925
0.000135469
0.000137193
0.000138938
0.000140313
0.000141191
0.000141617
0.000141617
0.000141191
0.000140313
0.000138938
0.000137193
0.000135468
0.000133923
0.000132602
0.000131513
0.00013065
0.000130639
0.000131542
0.00013266
0.00013399
0.000135526
0.000137227
0.000138941
0.000140289
0.000141147
0.000141563
0.000141563
0.000141147
0.000140289
0.000138941
0.000137227
0.000135525
0.000133989
0.000132657
0.000131536
0.000130632
0.000130548
0.000131571
0.000132726
0.000134058
0.00013558
0.00013726
0.000138945
0.00014027
0.000141111
0.000141519
0.000141519
0.000141112
0.00014027
0.000138945
0.000137259
0.000135579
0.000134056
0.000132722
0.000131565
0.000130541
)
;

boundaryField
{
    defaultFaces
    {
        type            empty;
    }
}


// ************************************************************************* //
