/*--------------------------------*- C++ -*----------------------------------*\
  =========                 |
  \\      /  F ield         | OpenFOAM: The Open Source CFD Toolbox
   \\    /   O peration     | Website:  https://openfoam.org
    \\  /    A nd           | Version:  11
     \\/     M anipulation  |
\*---------------------------------------------------------------------------*/
FoamFile
{
    format      ascii;
    class       volScalarField;
    location    "7";
    object      epsilon;
}
// * * * * * * * * * * * * * * * * * * * * * * * * * * * * * * * * * * * * * //

dimensions      [0 2 -3 0 0 0 0];

internalField   nonuniform List<scalar> 
400
(
0.000108933
7.23384e-05
5.3978e-05
4.45792e-05
3.8778e-05
3.47586e-05
3.19685e-05
3.0123e-05
2.91479e-05
2.8711e-05
2.87119e-05
2.91507e-05
3.01281e-05
3.19769e-05
3.47718e-05
3.87971e-05
4.46049e-05
5.4007e-05
7.23597e-05
0.000108944
7.31358e-05
6.97705e-05
5.78244e-05
4.76367e-05
4.06398e-05
3.58835e-05
3.26701e-05
3.06583e-05
2.95838e-05
2.91063e-05
2.91072e-05
2.95867e-05
3.06636e-05
3.2679e-05
3.58975e-05
4.06597e-05
4.76619e-05
5.78494e-05
6.97862e-05
7.31412e-05
5.46552e-05
5.83245e-05
5.53194e-05
4.87686e-05
4.22292e-05
3.71004e-05
3.35045e-05
3.13039e-05
3.01196e-05
2.95943e-05
2.95953e-05
3.01226e-05
3.13095e-05
3.35137e-05
3.71146e-05
4.22484e-05
4.87905e-05
5.53384e-05
5.83354e-05
5.46595e-05
4.51278e-05
4.81838e-05
4.9082e-05
4.68204e-05
4.25403e-05
3.80037e-05
3.43414e-05
3.20166e-05
3.07411e-05
3.0172e-05
3.0173e-05
3.07441e-05
3.20223e-05
3.43506e-05
3.80172e-05
4.25571e-05
4.68375e-05
4.90955e-05
4.81918e-05
4.51321e-05
3.92952e-05
4.11379e-05
4.26253e-05
4.27474e-05
4.10268e-05
3.80333e-05
3.49121e-05
3.26822e-05
3.13935e-05
3.0806e-05
3.0807e-05
3.13965e-05
3.26878e-05
3.49207e-05
3.80451e-05
4.10401e-05
4.27597e-05
4.26346e-05
4.11438e-05
3.9299e-05
3.52539e-05
3.63405e-05
3.74872e-05
3.82833e-05
3.81689e-05
3.68878e-05
3.48682e-05
3.3089e-05
3.19508e-05
3.1407e-05
3.14079e-05
3.19536e-05
3.3094e-05
3.48754e-05
3.68969e-05
3.81782e-05
3.82916e-05
3.74934e-05
3.63446e-05
3.52566e-05
3.24267e-05
3.30879e-05
3.38603e-05
3.46167e-05
3.50851e-05
3.49323e-05
3.40737e-05
3.30107e-05
3.22143e-05
3.18037e-05
3.18045e-05
3.22167e-05
3.30146e-05
3.4079e-05
3.49384e-05
3.50911e-05
3.46219e-05
3.38639e-05
3.309e-05
3.24279e-05
3.06913e-05
3.11312e-05
3.16685e-05
3.22641e-05
3.28082e-05
3.31019e-05
3.29597e-05
3.25137e-05
3.20911e-05
3.18501e-05
3.18507e-05
3.20928e-05
3.25165e-05
3.29633e-05
3.31058e-05
3.28119e-05
3.22671e-05
3.16704e-05
3.11319e-05
3.06913e-05
2.96286e-05
2.99578e-05
3.0368e-05
3.08477e-05
3.13526e-05
3.17795e-05
3.19784e-05
3.19166e-05
3.17701e-05
3.16676e-05
3.1668e-05
3.17712e-05
3.19184e-05
3.19807e-05
3.17819e-05
3.13548e-05
3.08494e-05
3.03688e-05
2.99576e-05
2.96278e-05
2.89521e-05
2.92196e-05
2.95565e-05
2.99616e-05
3.04174e-05
3.08709e-05
3.12179e-05
3.13688e-05
3.13971e-05
3.13895e-05
3.13898e-05
3.13979e-05
3.13699e-05
3.12194e-05
3.08723e-05
3.04186e-05
2.99624e-05
2.95566e-05
2.92187e-05
2.89507e-05
2.85144e-05
2.87455e-05
2.90384e-05
2.93958e-05
2.9812e-05
3.02591e-05
3.06643e-05
3.09232e-05
3.10514e-05
3.11013e-05
3.11015e-05
3.10519e-05
3.0924e-05
3.06652e-05
3.02599e-05
2.98127e-05
2.93961e-05
2.9038e-05
2.87443e-05
2.85126e-05
2.82316e-05
2.84408e-05
2.87065e-05
2.90333e-05
2.94208e-05
2.98533e-05
3.02768e-05
3.05859e-05
3.07661e-05
3.08476e-05
3.08477e-05
3.07664e-05
3.05863e-05
3.02773e-05
2.98538e-05
2.94211e-05
2.90332e-05
2.87058e-05
2.84393e-05
2.82296e-05
2.8053e-05
2.82489e-05
2.84977e-05
2.88047e-05
2.9172e-05
2.95899e-05
3.00146e-05
3.03436e-05
3.0548e-05
3.06451e-05
3.06452e-05
3.05482e-05
3.03439e-05
3.00148e-05
2.959e-05
2.9172e-05
2.88043e-05
2.84966e-05
2.82471e-05
2.80507e-05
2.79468e-05
2.81347e-05
2.83729e-05
2.86671e-05
2.90203e-05
2.94254e-05
2.98442e-05
3.01777e-05
3.03907e-05
3.04941e-05
3.04941e-05
3.03908e-05
3.01778e-05
2.98443e-05
2.94254e-05
2.902e-05
2.86664e-05
2.83715e-05
2.81326e-05
2.79442e-05
2.78989e-05
2.80826e-05
2.83147e-05
2.86015e-05
2.89457e-05
2.9341e-05
2.97513e-05
3.0081e-05
3.02937e-05
3.03978e-05
3.03978e-05
3.02938e-05
3.0081e-05
2.97513e-05
2.93408e-05
2.89452e-05
2.86006e-05
2.8313e-05
2.808e-05
2.78957e-05
2.78841e-05
2.8066e-05
2.82955e-05
2.85786e-05
2.89177e-05
2.93057e-05
2.97075e-05
3.00306e-05
3.02395e-05
3.03419e-05
3.0342e-05
3.02396e-05
3.00306e-05
2.97075e-05
2.93055e-05
2.89171e-05
2.85775e-05
2.82934e-05
2.80629e-05
2.78803e-05
2.78826e-05
2.80644e-05
2.82937e-05
2.8576e-05
2.89121e-05
2.92942e-05
2.9688e-05
3.00038e-05
3.0208e-05
3.03082e-05
3.03082e-05
3.02081e-05
3.00039e-05
2.9688e-05
2.92941e-05
2.89115e-05
2.85748e-05
2.82914e-05
2.80607e-05
2.7878e-05
2.78831e-05
2.8067e-05
2.82992e-05
2.85828e-05
2.89168e-05
2.92936e-05
2.96797e-05
2.99888e-05
3.01883e-05
3.02861e-05
3.02861e-05
3.01884e-05
2.99889e-05
2.96798e-05
2.92935e-05
2.89163e-05
2.85815e-05
2.82968e-05
2.80629e-05
2.78776e-05
2.78769e-05
2.80695e-05
2.83086e-05
2.85941e-05
2.89261e-05
2.92977e-05
2.96769e-05
2.99801e-05
3.01754e-05
3.0271e-05
3.0271e-05
3.01754e-05
2.99801e-05
2.96769e-05
2.92976e-05
2.89255e-05
2.85929e-05
2.83061e-05
2.80653e-05
2.78714e-05
2.78563e-05
2.80747e-05
2.83215e-05
2.86075e-05
2.89367e-05
2.93035e-05
2.96768e-05
2.99749e-05
3.01666e-05
3.02604e-05
3.02604e-05
3.01667e-05
2.99749e-05
2.96768e-05
2.93034e-05
2.89361e-05
2.86062e-05
2.83189e-05
2.80705e-05
2.78512e-05
)
;

boundaryField
{
    defaultFaces
    {
        type            empty;
    }
}


// ************************************************************************* //
