/*--------------------------------*- C++ -*----------------------------------*\
  =========                 |
  \\      /  F ield         | OpenFOAM: The Open Source CFD Toolbox
   \\    /   O peration     | Website:  https://openfoam.org
    \\  /    A nd           | Version:  11
     \\/     M anipulation  |
\*---------------------------------------------------------------------------*/
FoamFile
{
    format      ascii;
    class       volScalarField;
    location    "7";
    object      k;
}
// * * * * * * * * * * * * * * * * * * * * * * * * * * * * * * * * * * * * * //

dimensions      [0 2 -2 0 0 0 0];

internalField   nonuniform List<scalar> 
400
(
0.000759899
0.000504777
0.000376745
0.000311278
0.000270911
0.000242955
0.000223546
0.000210693
0.000203895
0.000200847
0.000200852
0.000203912
0.000210723
0.000223593
0.000243026
0.000271011
0.000311408
0.000376892
0.000504899
0.000759989
0.000510315
0.00048692
0.000403669
0.000332673
0.000283937
0.000250824
0.000228453
0.000214436
0.000206942
0.000203608
0.000203613
0.000206959
0.000214467
0.000228504
0.000250899
0.000284041
0.000332802
0.000403801
0.000487017
0.000510366
0.000381397
0.000407116
0.00038623
0.000340605
0.000295052
0.00025933
0.000234283
0.000218944
0.000210679
0.00020701
0.000207016
0.000210697
0.000218977
0.000234335
0.000259408
0.000295154
0.000340721
0.000386335
0.000407186
0.000381435
0.000314967
0.000336383
0.000342728
0.00032702
0.000297226
0.000265632
0.000240117
0.000223906
0.000215002
0.000211026
0.000211032
0.000215021
0.00022394
0.00024017
0.000265707
0.000297318
0.000327114
0.000342806
0.000336435
0.000314999
0.000274283
0.000287208
0.000297657
0.000298577
0.000286637
0.000265807
0.000244065
0.000228515
0.000219516
0.00021541
0.000215416
0.000219535
0.000228548
0.000244116
0.000265873
0.000286711
0.000298648
0.000297714
0.000287247
0.00027431
0.000246026
0.000253661
0.000261725
0.000267345
0.000266611
0.000257728
0.000243673
0.000231268
0.000223319
0.000219517
0.000219523
0.000223337
0.000231298
0.000243716
0.000257781
0.000266666
0.000267395
0.000261764
0.000253689
0.000246046
0.000226143
0.000230801
0.000236245
0.000241586
0.000244918
0.000243909
0.000237957
0.000230553
0.000224992
0.000222121
0.000222126
0.000225007
0.000230577
0.000237991
0.000243947
0.000244955
0.000241618
0.00023627
0.000230818
0.000226154
0.000213795
0.000216901
0.000220698
0.000224909
0.000228766
0.000230873
0.000229924
0.00022683
0.000223882
0.000222197
0.000222201
0.000223893
0.000226848
0.000229948
0.000230899
0.00022879
0.00022493
0.000220712
0.000216909
0.000213798
0.000206109
0.000208437
0.000211337
0.000214731
0.000218307
0.000221339
0.00022277
0.000222361
0.000221345
0.00022063
0.000220632
0.000221353
0.000222374
0.000222786
0.000221356
0.000218322
0.000214743
0.000211344
0.000208438
0.000206107
0.000201115
0.000203003
0.000205383
0.000208245
0.000211468
0.000214677
0.000217139
0.000218215
0.000218422
0.000218371
0.000218373
0.000218427
0.000218223
0.000217149
0.000214688
0.000211477
0.000208252
0.000205385
0.000203001
0.000201109
0.000197802
0.000199429
0.000201491
0.000204009
0.000206943
0.000210096
0.000212956
0.000214784
0.000215689
0.000216041
0.000216043
0.000215693
0.00021479
0.000212963
0.000210103
0.000206948
0.000204012
0.00020149
0.000199423
0.000197794
0.000195598
0.000197065
0.000198928
0.000201221
0.000203943
0.000206982
0.00020996
0.000212134
0.000213401
0.000213974
0.000213975
0.000213403
0.000212137
0.000209963
0.000206985
0.000203944
0.000201221
0.000198924
0.000197057
0.000195588
0.000194157
0.000195525
0.000197261
0.000199407
0.000201976
0.000204902
0.000207878
0.000210186
0.00021162
0.000212302
0.000212302
0.000211621
0.000210188
0.00020788
0.000204903
0.000201976
0.000199405
0.000197255
0.000195515
0.000194145
0.00019326
0.000194567
0.000196223
0.000198272
0.000200733
0.000203561
0.000206487
0.000208821
0.000210313
0.000211038
0.000211038
0.000210314
0.000208821
0.000206488
0.00020356
0.000200731
0.000198267
0.000196215
0.000194555
0.000193245
0.000192821
0.000194095
0.000195706
0.000197697
0.000200091
0.000202843
0.000205705
0.000208009
0.000209498
0.000210226
0.000210227
0.000209498
0.000208009
0.000205705
0.000202842
0.000200087
0.000197691
0.000195695
0.00019408
0.000192803
0.000192658
0.000193917
0.000195508
0.000197472
0.000199826
0.000202526
0.000205326
0.000207582
0.000209043
0.00020976
0.00020976
0.000209043
0.000207582
0.000205325
0.000202524
0.000199822
0.000197464
0.000195495
0.000193899
0.000192636
0.000192614
0.000193872
0.000195461
0.000197418
0.000199751
0.000202408
0.000205151
0.000207356
0.000208784
0.000209485
0.000209485
0.000208784
0.000207356
0.000205151
0.000202406
0.000199747
0.00019741
0.000195447
0.000193851
0.000192589
0.0001926
0.000193873
0.000195482
0.000197447
0.000199766
0.000202386
0.000205076
0.000207233
0.000208629
0.000209313
0.000209313
0.000208629
0.000207233
0.000205075
0.000202384
0.000199762
0.000197439
0.000195467
0.00019385
0.00019257
0.000192552
0.000193884
0.00019554
0.000197519
0.000199823
0.000202406
0.000205048
0.000207165
0.000208531
0.000209201
0.000209201
0.000208531
0.000207164
0.000205047
0.000202405
0.000199819
0.000197511
0.000195525
0.00019386
0.000192522
0.000192409
0.000193918
0.000195627
0.000197609
0.000199894
0.000202444
0.000205044
0.000207126
0.000208467
0.000209124
0.000209124
0.000208467
0.000207126
0.000205044
0.000202442
0.000199889
0.000197601
0.000195612
0.000193895
0.00019238
)
;

boundaryField
{
    defaultFaces
    {
        type            empty;
    }
}


// ************************************************************************* //
