/*--------------------------------*- C++ -*----------------------------------*\
  =========                 |
  \\      /  F ield         | OpenFOAM: The Open Source CFD Toolbox
   \\    /   O peration     | Website:  https://openfoam.org
    \\  /    A nd           | Version:  11
     \\/     M anipulation  |
\*---------------------------------------------------------------------------*/
FoamFile
{
    format      ascii;
    class       volScalarField;
    location    "7";
    object      nut;
}
// * * * * * * * * * * * * * * * * * * * * * * * * * * * * * * * * * * * * * //

dimensions      [0 2 -1 0 0 0 0];

internalField   nonuniform List<scalar> 
400
(
0.000477082
0.00031701
0.000236658
0.000195618
0.000170338
0.000152838
0.000140687
0.000132631
0.000128366
0.000126451
0.000126454
0.000128375
0.000132646
0.00014071
0.00015287
0.000170379
0.000195668
0.000236716
0.00031707
0.00047715
0.000320471
0.000305834
0.00025362
0.000209091
0.000178539
0.000157792
0.000143776
0.000134986
0.000130282
0.000128187
0.00012819
0.000130291
0.000135002
0.000143801
0.000157826
0.000178583
0.000209143
0.000253676
0.000305887
0.000320512
0.000239534
0.000255757
0.000242692
0.000214094
0.000185536
0.000163144
0.000147442
0.000137819
0.000132628
0.000130322
0.000130325
0.000132638
0.000137836
0.000147467
0.000163179
0.000185579
0.000214143
0.000242741
0.000255797
0.000239562
0.000197846
0.000211354
0.000215387
0.000205568
0.000186903
0.000167101
0.000151102
0.000140929
0.000135335
0.000132834
0.000132838
0.000135345
0.000140947
0.000151128
0.000167135
0.000186944
0.000205612
0.000215426
0.000211384
0.000197868
0.000172306
0.000180465
0.000187072
0.000187692
0.000180235
0.00016719
0.00015356
0.0001438
0.000138146
0.000135562
0.000135566
0.000138156
0.000143818
0.000153585
0.000167222
0.000180271
0.000187727
0.000187102
0.000180488
0.000172324
0.000154525
0.000159353
0.000164456
0.000168027
0.000167605
0.000162062
0.000153259
0.000145475
0.000140479
0.000138087
0.00013809
0.000140489
0.000145491
0.000153282
0.000162089
0.000167634
0.000168053
0.000164478
0.00015937
0.000154538
0.00014194
0.000144894
0.000148347
0.000151739
0.000153872
0.000153275
0.000149562
0.00014492
0.000141426
0.000139618
0.000139621
0.000141434
0.000144934
0.00014958
0.000153296
0.000153893
0.000151758
0.000148362
0.000144905
0.000141949
0.000134036
0.00013601
0.000138423
0.000141103
0.000143563
0.000144923
0.000144354
0.000142422
0.000140571
0.000139511
0.000139513
0.000140578
0.000142432
0.000144368
0.000144938
0.000143578
0.000141116
0.000138433
0.000136017
0.00013404
0.000129041
0.000130521
0.000132366
0.000134526
0.000136805
0.000138743
0.000139669
0.000139426
0.000138791
0.000138342
0.000138344
0.000138796
0.000139434
0.000139679
0.000138754
0.000136815
0.000134535
0.000132372
0.000130524
0.000129042
0.000125734
0.000126933
0.000128446
0.000130265
0.000132315
0.000134359
0.000135929
0.000136619
0.000136755
0.000136725
0.000136726
0.000136759
0.000136625
0.000135936
0.000134365
0.000132321
0.00013027
0.000128448
0.000126934
0.000125732
0.000123492
0.000124523
0.000125829
0.000127425
0.000129287
0.000131288
0.000133104
0.000134265
0.00013484
0.000135063
0.000135064
0.000134842
0.000134269
0.000133108
0.000131292
0.00012929
0.000127428
0.00012583
0.000124521
0.000123489
0.000121966
0.000122891
0.000124067
0.000125515
0.000127234
0.000129156
0.00013104
0.000132416
0.000133218
0.000133581
0.000133581
0.000133219
0.000132418
0.000131042
0.000129158
0.000127235
0.000125515
0.000124065
0.000122887
0.000121961
0.00012094
0.000121799
0.00012289
0.00012424
0.000125857
0.0001277
0.000129577
0.000131034
0.000131939
0.00013237
0.00013237
0.00013194
0.000131035
0.000129578
0.0001277
0.000125857
0.000124238
0.000122887
0.000121794
0.000120934
0.000120281
0.000121098
0.000122135
0.000123418
0.000124963
0.000126738
0.000128579
0.000130048
0.000130989
0.000131446
0.000131446
0.000130989
0.000130048
0.000128579
0.000126738
0.000124961
0.000123416
0.000122131
0.000121092
0.000120273
0.00011994
0.000120735
0.000121741
0.000122986
0.000124483
0.000126208
0.000128005
0.000129454
0.000130391
0.00013085
0.00013085
0.000130391
0.000129454
0.000128005
0.000126207
0.000124481
0.000122982
0.000121736
0.000120728
0.000119932
0.000119801
0.000120585
0.000121577
0.000122803
0.000124275
0.000125965
0.000127721
0.000129139
0.000130059
0.00013051
0.00013051
0.000130059
0.000129139
0.000127721
0.000125964
0.000124273
0.000122799
0.000121571
0.000120577
0.00011979
0.000119753
0.000120536
0.000121526
0.000122748
0.000124206
0.000125868
0.000127588
0.000128974
0.000129872
0.000130314
0.000130314
0.000129872
0.000128973
0.000127587
0.000125867
0.000124203
0.000122743
0.000121519
0.000120526
0.000119741
0.000119734
0.000120526
0.000121529
0.000122755
0.000124204
0.000125843
0.000127529
0.000128885
0.000129763
0.000130194
0.000130194
0.000129763
0.000128884
0.000127528
0.000125842
0.000124201
0.000122751
0.000121522
0.000120515
0.00011972
0.0001197
0.000120529
0.000121561
0.000122796
0.000124235
0.000125851
0.000127507
0.000128837
0.000129697
0.000130119
0.000130119
0.000129697
0.000128837
0.000127506
0.00012585
0.000124232
0.000122791
0.000121553
0.000120518
0.000119686
0.00011961
0.000120549
0.000121614
0.00012285
0.000124277
0.000125873
0.000127503
0.000128812
0.000129656
0.00013007
0.00013007
0.000129656
0.000128811
0.000127503
0.000125872
0.000124274
0.000122846
0.000121606
0.000120538
0.000119597
)
;

boundaryField
{
    defaultFaces
    {
        type            empty;
    }
}


// ************************************************************************* //
