/*--------------------------------*- C++ -*----------------------------------*\
  =========                 |
  \\      /  F ield         | OpenFOAM: The Open Source CFD Toolbox
   \\    /   O peration     | Website:  https://openfoam.org
    \\  /    A nd           | Version:  11
     \\/     M anipulation  |
\*---------------------------------------------------------------------------*/
FoamFile
{
    format      ascii;
    class       volScalarField;
    location    "8.5";
    object      epsilon;
}
// * * * * * * * * * * * * * * * * * * * * * * * * * * * * * * * * * * * * * //

dimensions      [0 2 -3 0 0 0 0];

internalField   nonuniform List<scalar> 
400
(
7.53204e-05
5.00242e-05
3.73351e-05
3.08419e-05
2.68361e-05
2.4062e-05
2.21365e-05
2.08619e-05
2.01877e-05
1.98854e-05
1.98861e-05
2.01897e-05
2.08654e-05
2.21423e-05
2.40707e-05
2.68485e-05
3.08582e-05
3.73536e-05
5.0039e-05
7.53302e-05
5.05718e-05
4.82465e-05
3.99914e-05
3.29532e-05
2.81214e-05
2.48384e-05
2.26208e-05
2.12315e-05
2.04889e-05
2.01586e-05
2.01593e-05
2.0491e-05
2.12353e-05
2.26269e-05
2.48476e-05
2.81343e-05
3.29693e-05
4.00078e-05
4.8258e-05
5.05776e-05
3.77926e-05
4.03313e-05
3.8257e-05
3.37327e-05
2.92174e-05
2.56774e-05
2.31958e-05
2.16765e-05
2.08581e-05
2.04949e-05
2.04956e-05
2.08602e-05
2.16804e-05
2.32021e-05
2.56867e-05
2.92299e-05
3.37471e-05
3.82699e-05
4.03397e-05
3.77971e-05
3.11991e-05
3.33155e-05
3.39404e-05
3.23815e-05
2.9428e-05
2.62975e-05
2.37705e-05
2.21657e-05
2.12844e-05
2.0891e-05
2.08917e-05
2.12867e-05
2.21697e-05
2.37768e-05
2.63065e-05
2.94391e-05
3.2393e-05
3.39499e-05
3.33218e-05
3.12033e-05
2.7154e-05
2.84331e-05
2.94669e-05
2.95569e-05
2.83735e-05
2.63101e-05
2.41573e-05
2.26184e-05
2.17283e-05
2.13222e-05
2.13229e-05
2.17305e-05
2.26224e-05
2.41633e-05
2.6318e-05
2.83825e-05
2.95655e-05
2.94737e-05
2.84379e-05
2.71576e-05
2.43382e-05
2.50957e-05
2.58954e-05
2.64532e-05
2.63815e-05
2.55029e-05
2.41122e-05
2.28851e-05
2.20991e-05
2.17233e-05
2.1724e-05
2.21012e-05
2.28887e-05
2.41173e-05
2.55092e-05
2.63882e-05
2.64592e-05
2.59002e-05
2.50992e-05
2.43409e-05
2.23492e-05
2.2813e-05
2.3355e-05
2.38868e-05
2.42198e-05
2.41227e-05
2.35357e-05
2.28043e-05
2.22549e-05
2.19712e-05
2.19718e-05
2.22566e-05
2.28072e-05
2.35396e-05
2.41272e-05
2.42243e-05
2.38908e-05
2.3358e-05
2.28152e-05
2.23508e-05
2.11057e-05
2.14162e-05
2.17956e-05
2.22165e-05
2.26026e-05
2.28154e-05
2.27248e-05
2.24208e-05
2.21303e-05
2.1964e-05
2.19645e-05
2.21316e-05
2.24229e-05
2.27276e-05
2.28184e-05
2.26055e-05
2.2219e-05
2.17974e-05
2.14173e-05
2.11063e-05
2.03255e-05
2.05587e-05
2.08492e-05
2.11891e-05
2.15476e-05
2.18524e-05
2.19982e-05
2.19604e-05
2.18612e-05
2.17911e-05
2.17915e-05
2.18622e-05
2.19619e-05
2.2e-05
2.18544e-05
2.15494e-05
2.11906e-05
2.08501e-05
2.0559e-05
2.03255e-05
1.98135e-05
2.00027e-05
2.02411e-05
2.05279e-05
2.08509e-05
2.1173e-05
2.14207e-05
2.153e-05
2.15521e-05
2.15478e-05
2.1548e-05
2.15527e-05
2.1531e-05
2.14219e-05
2.11742e-05
2.0852e-05
2.05287e-05
2.02415e-05
2.00026e-05
1.9813e-05
1.94699e-05
1.96326e-05
1.98389e-05
2.00908e-05
2.03844e-05
2.07001e-05
2.09867e-05
2.11702e-05
2.12612e-05
2.12968e-05
2.12969e-05
2.12616e-05
2.11708e-05
2.09874e-05
2.07008e-05
2.0385e-05
2.00911e-05
1.98388e-05
1.96321e-05
1.94692e-05
1.92384e-05
1.93846e-05
1.95703e-05
1.9799e-05
2.00705e-05
2.03739e-05
2.06712e-05
2.08885e-05
2.10151e-05
2.10724e-05
2.10725e-05
2.10153e-05
2.08888e-05
2.06717e-05
2.03743e-05
2.00708e-05
1.97991e-05
1.957e-05
1.93838e-05
1.92374e-05
1.90847e-05
1.92204e-05
1.93929e-05
1.96061e-05
1.98615e-05
2.01525e-05
2.04487e-05
2.06784e-05
2.08212e-05
2.08891e-05
2.08892e-05
2.08214e-05
2.06786e-05
2.04489e-05
2.01526e-05
1.98615e-05
1.96059e-05
1.93923e-05
1.92194e-05
1.90834e-05
1.89872e-05
1.91164e-05
1.92803e-05
1.9483e-05
1.97269e-05
2.00072e-05
2.02975e-05
2.05291e-05
2.06772e-05
2.07492e-05
2.07492e-05
2.06773e-05
2.05291e-05
2.02975e-05
2.00071e-05
1.97267e-05
1.94826e-05
1.92794e-05
1.91152e-05
1.89857e-05
1.89381e-05
1.90636e-05
1.92226e-05
1.94192e-05
1.96556e-05
1.99278e-05
2.0211e-05
2.04391e-05
2.05866e-05
2.06588e-05
2.06588e-05
2.05866e-05
2.04391e-05
2.0211e-05
1.99276e-05
1.96553e-05
1.94186e-05
1.92215e-05
1.90621e-05
1.89363e-05
1.89189e-05
1.90428e-05
1.91994e-05
1.9393e-05
1.96252e-05
1.98917e-05
2.01684e-05
2.03915e-05
2.05361e-05
2.0607e-05
2.0607e-05
2.05361e-05
2.03915e-05
2.01683e-05
1.98915e-05
1.96248e-05
1.93923e-05
1.91982e-05
1.9041e-05
1.89167e-05
1.8913e-05
1.90367e-05
1.91929e-05
1.93856e-05
1.96156e-05
1.98776e-05
2.01485e-05
2.03664e-05
2.05076e-05
2.0577e-05
2.0577e-05
2.05076e-05
2.03664e-05
2.01484e-05
1.98774e-05
1.96151e-05
1.93848e-05
1.91915e-05
1.90345e-05
1.89103e-05
1.89109e-05
1.90359e-05
1.91941e-05
1.93875e-05
1.96159e-05
1.98742e-05
2.01397e-05
2.03529e-05
2.04908e-05
2.05585e-05
2.05585e-05
2.04908e-05
2.03529e-05
2.01396e-05
1.9874e-05
1.96155e-05
1.93867e-05
1.91926e-05
1.90335e-05
1.89078e-05
1.89058e-05
1.90366e-05
1.91994e-05
1.93941e-05
1.9621e-05
1.98757e-05
2.01364e-05
2.03455e-05
2.04806e-05
2.05468e-05
2.05468e-05
2.04806e-05
2.03455e-05
2.01363e-05
1.98755e-05
1.96206e-05
1.93933e-05
1.91979e-05
1.90342e-05
1.89026e-05
1.88915e-05
1.90398e-05
1.92078e-05
1.94028e-05
1.96278e-05
1.98792e-05
2.01359e-05
2.03416e-05
2.04742e-05
2.05391e-05
2.05391e-05
2.04741e-05
2.03415e-05
2.01358e-05
1.9879e-05
1.96274e-05
1.9402e-05
1.92063e-05
1.90374e-05
1.88886e-05
)
;

boundaryField
{
    defaultFaces
    {
        type            empty;
    }
}


// ************************************************************************* //
