/*--------------------------------*- C++ -*----------------------------------*\
  =========                 |
  \\      /  F ield         | OpenFOAM: The Open Source CFD Toolbox
   \\    /   O peration     | Website:  https://openfoam.org
    \\  /    A nd           | Version:  11
     \\/     M anipulation  |
\*---------------------------------------------------------------------------*/
FoamFile
{
    format      ascii;
    class       volScalarField;
    location    "8.5";
    object      k;
}
// * * * * * * * * * * * * * * * * * * * * * * * * * * * * * * * * * * * * * //

dimensions      [0 2 -2 0 0 0 0];

internalField   nonuniform List<scalar> 
400
(
0.000629562
0.000418235
0.000312202
0.000258006
0.000224609
0.000201498
0.000185467
0.000174853
0.000169241
0.000166724
0.000166729
0.000169255
0.000174877
0.000185505
0.000201553
0.000224685
0.000258104
0.000312313
0.000418333
0.000629644
0.000422792
0.000403425
0.000334486
0.00027571
0.000235383
0.000208005
0.000189525
0.000177949
0.000171763
0.000169011
0.000169016
0.000171777
0.000177974
0.000189564
0.000208063
0.000235463
0.000275808
0.000334588
0.000403505
0.000422842
0.000315968
0.000337293
0.000320017
0.000282257
0.000244568
0.000215031
0.000194337
0.000181671
0.000174849
0.000171822
0.000171826
0.000174864
0.000181698
0.000194378
0.000215091
0.000244646
0.000282346
0.0003201
0.000337352
0.000316005
0.00026088
0.000278652
0.000283942
0.000270967
0.000246333
0.000220217
0.000199138
0.000185754
0.000178405
0.000175123
0.000175128
0.00017842
0.000185781
0.000199179
0.000220275
0.000246404
0.000271041
0.000284005
0.000278697
0.000260911
0.000227076
0.000237825
0.000246526
0.000247336
0.000237496
0.000220298
0.000202347
0.000189512
0.000182086
0.000178698
0.000178703
0.000182102
0.000189539
0.000202387
0.000220351
0.000237555
0.000247393
0.000246573
0.000237859
0.000227102
0.000203498
0.000209873
0.000216609
0.000221327
0.000220781
0.000213488
0.000201906
0.000191678
0.000185122
0.000181987
0.000181991
0.000185137
0.000191703
0.000201942
0.000213531
0.000220826
0.000221368
0.000216643
0.000209899
0.000203518
0.000186762
0.000190675
0.000195249
0.000199745
0.000202582
0.000201823
0.000196961
0.000190877
0.0001863
0.000183934
0.000183938
0.000186312
0.000190898
0.000196989
0.000201855
0.000202614
0.000199773
0.000195271
0.000190692
0.000186775
0.000176196
0.000178822
0.00018203
0.000185593
0.000188871
0.000190702
0.000189991
0.00018748
0.000185068
0.000183685
0.000183688
0.000185078
0.000187496
0.000190011
0.000190724
0.000188893
0.000185612
0.000182044
0.000178831
0.000176203
0.000169477
0.00017145
0.000173909
0.000176788
0.000179829
0.000182425
0.000183687
0.000183403
0.000182591
0.000182012
0.000182014
0.000182598
0.000183414
0.000183702
0.00018244
0.000179843
0.0001768
0.000173917
0.000171454
0.000169479
0.00016499
0.00016659
0.000168606
0.000171033
0.000173769
0.000176501
0.000178611
0.000179554
0.000179755
0.000179726
0.000179728
0.00017976
0.000179561
0.000178621
0.000176511
0.000173778
0.00017104
0.00016861
0.00016659
0.000164989
0.000161917
0.000163289
0.000165029
0.000167155
0.000169635
0.000172305
0.000174732
0.00017629
0.000177065
0.000177369
0.00017737
0.000177069
0.000176295
0.000174738
0.000172311
0.000169641
0.000167159
0.00016503
0.000163287
0.000161913
0.000159796
0.000161024
0.000162586
0.000164509
0.000166794
0.00016935
0.000171857
0.000173691
0.000174761
0.000175245
0.000175246
0.000174763
0.000173694
0.000171861
0.000169353
0.000166797
0.00016451
0.000162584
0.00016102
0.00015979
0.000158349
0.000159485
0.000160929
0.000162715
0.000164856
0.000167298
0.000169786
0.000171718
0.000172919
0.00017349
0.00017349
0.00017292
0.000171719
0.000169788
0.000167299
0.000164857
0.000162714
0.000160925
0.000159479
0.000158341
0.000157401
0.000158478
0.000159845
0.000161537
0.000163574
0.000165918
0.000168348
0.000170288
0.00017153
0.000172134
0.000172134
0.000171531
0.000170289
0.000168348
0.000165917
0.000163573
0.000161534
0.000159839
0.00015847
0.000157391
0.0001569
0.000157944
0.000159265
0.000160902
0.000162872
0.000165141
0.000167506
0.000169413
0.000170647
0.000171252
0.000171252
0.000170647
0.000169413
0.000167506
0.00016514
0.000162869
0.000160897
0.000159258
0.000157934
0.000156888
0.000156687
0.000157716
0.000159016
0.000160625
0.000162557
0.000164776
0.000167084
0.000168947
0.000170156
0.000170749
0.000170749
0.000170155
0.000168947
0.000167083
0.000164775
0.000162554
0.00016062
0.000159008
0.000157703
0.000156673
0.00015661
0.000157635
0.000158932
0.000160533
0.000162444
0.000164626
0.000166883
0.000168702
0.000169882
0.000170461
0.000170461
0.000169882
0.000168702
0.000166882
0.000164624
0.000162441
0.000160527
0.000158923
0.000157621
0.000156592
0.000156577
0.000157614
0.000158927
0.000160533
0.000162432
0.000164581
0.000166793
0.000168572
0.000169724
0.00017029
0.00017029
0.000169724
0.000168572
0.000166792
0.000164579
0.000162429
0.000160527
0.000158917
0.000157599
0.000156557
0.00015653
0.000157614
0.000158964
0.000160581
0.000162467
0.000164586
0.000166759
0.000168503
0.000169632
0.000170185
0.000170185
0.000169631
0.000168503
0.000166758
0.000164585
0.000162464
0.000160576
0.000158954
0.000157598
0.000156509
0.000156411
0.000157639
0.000159033
0.000160651
0.000162521
0.000164613
0.000166752
0.000168468
0.000169576
0.000170119
0.000170119
0.000169576
0.000168468
0.000166751
0.000164612
0.000162518
0.000160645
0.000159022
0.000157624
0.000156392
)
;

boundaryField
{
    defaultFaces
    {
        type            empty;
    }
}


// ************************************************************************* //
