/*--------------------------------*- C++ -*----------------------------------*\
  =========                 |
  \\      /  F ield         | OpenFOAM: The Open Source CFD Toolbox
   \\    /   O peration     | Website:  https://openfoam.org
    \\  /    A nd           | Version:  11
     \\/     M anipulation  |
\*---------------------------------------------------------------------------*/
FoamFile
{
    format      ascii;
    class       volScalarField;
    location    "8.5";
    object      nut;
}
// * * * * * * * * * * * * * * * * * * * * * * * * * * * * * * * * * * * * * //

dimensions      [0 2 -1 0 0 0 0];

internalField   nonuniform List<scalar> 
400
(
0.000473594
0.000314704
0.000234961
0.00019425
0.000169191
0.000151863
0.000139851
0.000131897
0.000127693
0.000125807
0.00012581
0.000127701
0.000131911
0.000139872
0.000151892
0.000169228
0.000194295
0.000235012
0.000314759
0.000473657
0.000318118
0.0003036
0.000251786
0.00020761
0.00017732
0.000156771
0.000142911
0.000134231
0.000129594
0.00012753
0.000127533
0.000129602
0.000134246
0.000142933
0.000156801
0.000177358
0.000207657
0.000251836
0.000303648
0.000318156
0.000237751
0.000253872
0.000240922
0.000212559
0.000184247
0.000162067
0.000146536
0.000137033
0.000131916
0.000129644
0.000129647
0.000131924
0.000137048
0.000146559
0.000162098
0.000184286
0.000212603
0.000240966
0.000253909
0.000237778
0.000196327
0.00020976
0.000213788
0.00020407
0.000185578
0.000165969
0.000150145
0.000140099
0.000134584
0.00013212
0.000132123
0.000134593
0.000140115
0.000150168
0.000166
0.000185615
0.000204109
0.000213824
0.000209787
0.000196348
0.000170903
0.000179032
0.000185624
0.000186276
0.000178913
0.000166014
0.000152541
0.000142907
0.000137332
0.000134788
0.000134791
0.000137341
0.000142923
0.000152564
0.000166042
0.000178946
0.000186307
0.000185652
0.000179054
0.00017092
0.000153135
0.000157963
0.00016307
0.00016666
0.00016629
0.000160842
0.000152162
0.000144488
0.000139568
0.000137213
0.000137216
0.000139577
0.000144503
0.000152182
0.000160866
0.000166316
0.000166685
0.000163091
0.00015798
0.000153148
0.000140462
0.000143432
0.000146906
0.000150326
0.000152502
0.00015197
0.000148346
0.000143791
0.000140359
0.000138584
0.000138587
0.000140367
0.000143804
0.000148364
0.000151989
0.000152521
0.000150344
0.000146921
0.000143444
0.000140471
0.000132384
0.000134382
0.000136823
0.000139537
0.000142042
0.000143458
0.000142958
0.000141092
0.00013929
0.000138254
0.000138256
0.000139296
0.000141103
0.000142971
0.000143472
0.000142056
0.00013955
0.000136833
0.000134389
0.00013239
0.000127181
0.000128683
0.000130556
0.00013275
0.000135071
0.00013706
0.000138043
0.000137852
0.000137254
0.000136824
0.000136826
0.000137259
0.00013786
0.000138053
0.00013707
0.000135081
0.000132759
0.000130562
0.000128687
0.000127184
0.000123651
0.000124868
0.000126402
0.00012825
0.000130335
0.000132421
0.000134037
0.000134768
0.000134932
0.000134915
0.000134916
0.000134935
0.000134773
0.000134044
0.000132428
0.000130341
0.000128256
0.000126406
0.00012487
0.000123651
0.000121189
0.00012223
0.000123551
0.000125166
0.000127051
0.000129082
0.000130931
0.000132121
0.000132715
0.000132949
0.000132949
0.000132718
0.000132125
0.000130935
0.000129086
0.000127055
0.000125169
0.000123552
0.00012223
0.000121187
0.000119455
0.000120384
0.000121565
0.000123021
0.000124752
0.000126689
0.000128591
0.000129984
0.000130797
0.000131166
0.000131166
0.000130799
0.000129986
0.000128594
0.000126692
0.000124754
0.000123022
0.000121565
0.000120382
0.000119452
0.000118247
0.000119102
0.00012019
0.000121536
0.000123152
0.000124996
0.000126876
0.000128338
0.000129247
0.000129679
0.00012968
0.000129248
0.000128339
0.000126878
0.000124997
0.000123153
0.000121536
0.000120188
0.000119099
0.000118242
0.000117435
0.000118243
0.000119269
0.00012054
0.000122071
0.000123835
0.000125665
0.000127128
0.000128066
0.000128521
0.000128521
0.000128066
0.000127129
0.000125665
0.000123834
0.00012207
0.000120538
0.000119266
0.000118238
0.00011743
0.000116991
0.000117772
0.000118761
0.000119987
0.000121464
0.000123167
0.000124945
0.000126379
0.000127309
0.000127764
0.000127764
0.000127309
0.000126379
0.000124944
0.000123166
0.000121462
0.000119984
0.000118757
0.000117766
0.000116984
0.000116792
0.00011756
0.000118533
0.000119736
0.000121183
0.000122846
0.000124578
0.000125978
0.000126887
0.000127334
0.000127334
0.000126887
0.000125978
0.000124577
0.000122845
0.000121181
0.000119733
0.000118528
0.000117554
0.000116784
0.000116713
0.000117478
0.000118447
0.000119644
0.000121074
0.000122708
0.000124401
0.000125768
0.000126655
0.000127091
0.00012709
0.000126654
0.000125767
0.000124401
0.000122707
0.000121072
0.00011964
0.000118442
0.00011747
0.000116703
0.000116678
0.000117452
0.000118432
0.000119633
0.000121053
0.000122662
0.000124321
0.000125657
0.000126524
0.000126949
0.000126949
0.000126523
0.000125657
0.000124321
0.000122661
0.000121051
0.000119629
0.000118426
0.000117443
0.000116667
0.000116638
0.000117448
0.000118456
0.000119664
0.000121074
0.000122661
0.00012429
0.0001256
0.000126448
0.000126865
0.000126865
0.000126448
0.0001256
0.000124289
0.00012266
0.000121072
0.00011966
0.00011845
0.000117439
0.000116627
0.000116549
0.000117465
0.000118505
0.000119715
0.000121113
0.00012268
0.000124283
0.000125572
0.000126405
0.000126814
0.000126814
0.000126405
0.000125572
0.000124282
0.000122678
0.000121111
0.000119711
0.000118499
0.000117456
0.000116538
)
;

boundaryField
{
    defaultFaces
    {
        type            empty;
    }
}


// ************************************************************************* //
